 Entering Gaussian System, Link 0=g16
 Input=CF3-c1-1sp-.gjf
 Output=CF3-c1-1sp-.log
 Initial command:
 /home/g16/l1.exe "/home/masker/scratch/Gau-28118.inp" -scrdir="/home/masker/scratch/"
 Entering Link 1 = /home/g16/l1.exe PID=     28119.
  
 Copyright (c) 1988,1990,1992,1993,1995,1998,2003,2009,2016,
            Gaussian, Inc.  All Rights Reserved.
  
 This is part of the Gaussian(R) 16 program.  It is based on
 the Gaussian(R) 09 system (copyright 2009, Gaussian, Inc.),
 the Gaussian(R) 03 system (copyright 2003, Gaussian, Inc.),
 the Gaussian(R) 98 system (copyright 1998, Gaussian, Inc.),
 the Gaussian(R) 94 system (copyright 1995, Gaussian, Inc.),
 the Gaussian 92(TM) system (copyright 1992, Gaussian, Inc.),
 the Gaussian 90(TM) system (copyright 1990, Gaussian, Inc.),
 the Gaussian 88(TM) system (copyright 1988, Gaussian, Inc.),
 the Gaussian 86(TM) system (copyright 1986, Carnegie Mellon
 University), and the Gaussian 82(TM) system (copyright 1983,
 Carnegie Mellon University). Gaussian is a federally registered
 trademark of Gaussian, Inc.
  
 This software contains proprietary and confidential information,
 including trade secrets, belonging to Gaussian, Inc.
  
 This software is provided under written license and may be
 used, copied, transmitted, or stored only in accord with that
 written license.
  
 The following legend is applicable only to US Government
 contracts under FAR:
  
                    RESTRICTED RIGHTS LEGEND
  
 Use, reproduction and disclosure by the US Government is
 subject to restrictions as set forth in subparagraphs (a)
 and (c) of the Commercial Computer Software - Restricted
 Rights clause in FAR 52.227-19.
  
 Gaussian, Inc.
 340 Quinnipiac St., Bldg. 40, Wallingford CT 06492
  
  
 ---------------------------------------------------------------
 Warning -- This program may not be used in any manner that
 competes with the business of Gaussian, Inc. or will provide
 assistance to any competitor of Gaussian, Inc.  The licensee
 of this program is prohibited from giving any competitor of
 Gaussian, Inc. access to this program.  By using this program,
 the user acknowledges that Gaussian, Inc. is engaged in the
 business of creating and licensing software in the field of
 computational chemistry and represents and warrants to the
 licensee that it is not a competitor of Gaussian, Inc. and that
 it will not use this program in any manner prohibited above.
 ---------------------------------------------------------------
  

 Cite this work as:
 Gaussian 16, Revision A.03,
 M. J. Frisch, G. W. Trucks, H. B. Schlegel, G. E. Scuseria, 
 M. A. Robb, J. R. Cheeseman, G. Scalmani, V. Barone, 
 G. A. Petersson, H. Nakatsuji, X. Li, M. Caricato, A. V. Marenich, 
 J. Bloino, B. G. Janesko, R. Gomperts, B. Mennucci, H. P. Hratchian, 
 J. V. Ortiz, A. F. Izmaylov, J. L. Sonnenberg, D. Williams-Young, 
 F. Ding, F. Lipparini, F. Egidi, J. Goings, B. Peng, A. Petrone, 
 T. Henderson, D. Ranasinghe, V. G. Zakrzewski, J. Gao, N. Rega, 
 G. Zheng, W. Liang, M. Hada, M. Ehara, K. Toyota, R. Fukuda, 
 J. Hasegawa, M. Ishida, T. Nakajima, Y. Honda, O. Kitao, H. Nakai, 
 T. Vreven, K. Throssell, J. A. Montgomery, Jr., J. E. Peralta, 
 F. Ogliaro, M. J. Bearpark, J. J. Heyd, E. N. Brothers, K. N. Kudin, 
 V. N. Staroverov, T. A. Keith, R. Kobayashi, J. Normand, 
 K. Raghavachari, A. P. Rendell, J. C. Burant, S. S. Iyengar, 
 J. Tomasi, M. Cossi, J. M. Millam, M. Klene, C. Adamo, R. Cammi, 
 J. W. Ochterski, R. L. Martin, K. Morokuma, O. Farkas, 
 J. B. Foresman, and D. J. Fox, Gaussian, Inc., Wallingford CT, 2016.
 
 ******************************************
 Gaussian 16:  ES64L-G16RevA.03 25-Dec-2016
                 5-Sep-2018 
 ******************************************
 %nprocshared=8
 Will use up to    8 processors via shared memory.
 %mem=6GB
 %chk=CF3-c1-1sp-.chk
 -----------------------------------------------------------
 #p b3lyp/6-311+g(2d,p) pop=(full,nboread) stable=opt g09def
 -----------------------------------------------------------
 1/38=1,158=3,167=1,172=1/1;
 2/12=2,17=6,18=5,40=1/2;
 3/5=4,6=6,7=112,11=2,25=1,27=10,30=1,74=-5,75=-4,158=3/1,2,3;
 4/60=-1/1;
 5/5=2,38=5,87=10/2;
 6/7=3,28=1,40=2,87=10/1,7;
 8/6=1,10=90,11=11,87=10/1;
 9/8=-3,42=1,46=1,87=10/14;
 5/5=2,8=3,17=40,38=5,87=10/8(-2);
 6/7=3,28=1,40=2,87=10/1,7;
 99/5=1,9=1/99;
 Using 2006 physical constants.
 Leave Link    1 at Wed Sep  5 16:47:05 2018, MaxMem=   805306368 cpu:               0.3 elap:               0.0
 (Enter /home/g16/l101.exe)
 -------------
 CF3-c1-1sp- 1
 -------------
 Symbolic Z-matrix:
 Charge = -1 Multiplicity = 1
 C                     0.        0.        0.32594 
 F                     0.        1.26058  -0.07243 
 F                     1.0917   -0.63029  -0.07243 
 F                    -1.0917   -0.63029  -0.07243 
 
 ITRead=  0  0  0  0
 MicOpt= -1 -1 -1 -1
 NAtoms=      4 NQM=        4 NQMF=       0 NMMI=      0 NMMIF=      0
                NMic=       0 NMicF=      0.
                    Isotopes and Nuclear Properties:
 (Nuclear quadrupole moments (NQMom) in fm**2, nuclear magnetic moments (NMagM)
  in nuclear magnetons)

  Atom         1           2           3           4
 IAtWgt=          12          19          19          19
 AtmWgt=  12.0000000  18.9984032  18.9984032  18.9984032
 NucSpn=           0           1           1           1
 AtZEff=  -0.0000000  -0.0000000  -0.0000000  -0.0000000
 NQMom=    0.0000000   0.0000000   0.0000000   0.0000000
 NMagM=    0.0000000   2.6288670   2.6288670   2.6288670
 AtZNuc=   6.0000000   9.0000000   9.0000000   9.0000000
 Leave Link  101 at Wed Sep  5 16:47:05 2018, MaxMem=   805306368 cpu:               0.3 elap:               0.0
 (Enter /home/g16/l202.exe)
                          Input orientation:                          
 ---------------------------------------------------------------------
 Center     Atomic      Atomic             Coordinates (Angstroms)
 Number     Number       Type             X           Y           Z
 ---------------------------------------------------------------------
      1          6           0        0.000000    0.000000    0.325941
      2          9           0        0.000000    1.260582   -0.072431
      3          9           0        1.091696   -0.630291   -0.072431
      4          9           0       -1.091696   -0.630291   -0.072431
 ---------------------------------------------------------------------
                    Distance matrix (angstroms):
                    1          2          3          4
     1  C    0.000000
     2  F    1.322031   0.000000
     3  F    1.322031   2.183392   0.000000
     4  F    1.322031   2.183392   2.183392   0.000000
 Stoichiometry    CF3(1-)
 Framework group  C3V[C3(C),3SGV(F)]
 Deg. of freedom     2
 Full point group                 C3V     NOp   6
 Largest Abelian subgroup         CS      NOp   2
 Largest concise Abelian subgroup CS      NOp   2
                         Standard orientation:                         
 ---------------------------------------------------------------------
 Center     Atomic      Atomic             Coordinates (Angstroms)
 Number     Number       Type             X           Y           Z
 ---------------------------------------------------------------------
      1          6           0        0.000000    0.000000    0.325941
      2          9           0        0.000000    1.260582   -0.072431
      3          9           0        1.091696   -0.630291   -0.072431
      4          9           0       -1.091696   -0.630291   -0.072431
 ---------------------------------------------------------------------
 Rotational constants (GHZ):          10.7853803          10.7853803           5.5800313
 Leave Link  202 at Wed Sep  5 16:47:05 2018, MaxMem=   805306368 cpu:               0.0 elap:               0.0
 (Enter /home/g16/l301.exe)
 Standard basis: 6-311+G(2d,p) (5D, 7F)
 Ernie: Thresh=  0.10000D-02 Tol=  0.10000D-05 Strict=F.
 There are    71 symmetry adapted cartesian basis functions of A'  symmetry.
 There are    45 symmetry adapted cartesian basis functions of A"  symmetry.
 There are    65 symmetry adapted basis functions of A'  symmetry.
 There are    43 symmetry adapted basis functions of A"  symmetry.
   108 basis functions,   168 primitive gaussians,   116 cartesian basis functions
    17 alpha electrons       17 beta electrons
       nuclear repulsion energy       123.7393067602 Hartrees.
 IExCor=  402 DFT=T Ex+Corr=B3LYP ExCW=0 ScaHFX=  0.200000
 ScaDFX=  0.800000  0.720000  1.000000  0.810000 ScalE2=  1.000000  1.000000
 IRadAn=      4 IRanWt=     -1 IRanGd=            0 ICorTp=0 IEmpDi=  4
 NAtoms=    4 NActive=    4 NUniq=    2 SFac= 4.00D+00 NAtFMM=   60 NAOKFM=F Big=F
 Integral buffers will be    131072 words long.
 Raffenetti 2 integral format.
 Two-electron integral symmetry is turned on.
 Leave Link  301 at Wed Sep  5 16:47:05 2018, MaxMem=   805306368 cpu:               0.1 elap:               0.0
 (Enter /home/g16/l302.exe)
 NPDir=0 NMtPBC=     1 NCelOv=     1 NCel=       1 NClECP=     1 NCelD=      1
         NCelK=      1 NCelE2=     1 NClLst=     1 CellRange=     0.0.
 One-electron integrals computed using PRISM.
 One-electron integral symmetry used in STVInt
 NBasis=   108 RedAO= T EigKep=  1.87D-03  NBF=    65    43
 NBsUse=   108 1.00D-06 EigRej= -1.00D+00 NBFU=    65    43
 Precomputing XC quadrature grid using
 IXCGrd= 4 IRadAn=           4 IRanWt=          -1 IRanGd=           0 AccXCQ= 1.00D-10.
 Generated NRdTot=       0 NPtTot=           0 NUsed=           0 NTot=          32
 NSgBfM=   116   116   116   116   116 MxSgAt=     4 MxSgA2=     4.
 Leave Link  302 at Wed Sep  5 16:47:05 2018, MaxMem=   805306368 cpu:               0.5 elap:               0.1
 (Enter /home/g16/l303.exe)
 DipDrv:  MaxL=1.
 Leave Link  303 at Wed Sep  5 16:47:05 2018, MaxMem=   805306368 cpu:               0.1 elap:               0.0
 (Enter /home/g16/l401.exe)
 ExpMin= 4.38D-02 ExpMax= 1.14D+04 ExpMxC= 1.72D+03 IAcc=2 IRadAn=         4 AccDes= 0.00D+00
 Harris functional with IExCor=  402 and IRadAn=      -1 diagonalized for initial guess.
 HarFok:  IExCor=  402 AccDes= 0.00D+00 IRadAn=        -1 IDoV= 1 UseB2=F ITyADJ=14
 ICtDFT=  3500011 ScaDFX=  1.000000  1.000000  1.000000  1.000000
 FoFCou: FMM=F IPFlag=           0 FMFlag=      100000 FMFlg1=           0
         NFxFlg=           0 DoJE=T BraDBF=F KetDBF=T FulRan=T
         wScrn=  0.000000 ICntrl=       500 IOpCl=  0 I1Cent=   200000004 NGrid=           0
         NMat0=    1 NMatS0=      1 NMatT0=    0 NMatD0=    1 NMtDS0=    0 NMtDT0=    0
 Petite list used in FoFCou.
 Harris En= -337.804759803853    
 JPrj=0 DoOrth=F DoCkMO=F.
 Initial guess orbital symmetries:
       Occupied  (A1) (E) (E) (A1) (A1) (E) (E) (A1) (E) (E) (A1)
                 (E) (E) (E) (E) (A2) (A1)
       Virtual   (A1) (E) (E) (A1) (A1) (E) (E) (E) (E) (A1) (E)
                 (E) (A1) (A2) (E) (E) (A1) (E) (E) (A1) (E) (E)
                 (A1) (E) (E) (A1) (E) (E) (E) (E) (A1) (E) (E)
                 (A1) (A2) (E) (E) (E) (E) (A2) (E) (E) (A1) (A1)
                 (E) (E) (A2) (E) (E) (A1) (E) (E) (E) (E) (A1)
                 (A1) (E) (E) (E) (E) (A1) (E) (E) (E) (E) (A1)
                 (E) (E) (A2) (A1) (E) (E) (A2) (E) (E) (A1) (E)
                 (E) (A2) (E) (E) (A1) (E) (E) (A1) (E) (E) (A1)
                 (E) (E) (A1)
 The electronic state of the initial guess is 1-A1.
 Leave Link  401 at Wed Sep  5 16:47:05 2018, MaxMem=   805306368 cpu:               0.7 elap:               0.1
 (Enter /home/g16/l502.exe)
 Keep R1 ints in memory in symmetry-blocked form, NReq=26025436.
 FoFCou: FMM=F IPFlag=           0 FMFlag=           0 FMFlg1=           0
         NFxFlg=           0 DoJE=F BraDBF=F KetDBF=F FulRan=T
         wScrn=  0.000000 ICntrl=       600 IOpCl=  0 I1Cent=           0 NGrid=           0
         NMat0=    1 NMatS0=   5886 NMatT0=    0 NMatD0=    1 NMtDS0=    0 NMtDT0=    0
 Petite list used in FoFCou.
 Closed shell SCF:
 Using DIIS extrapolation, IDIIS=  1040.
 NGot=   805306368 LenX=   796578092 LenY=   796564195
 Requested convergence on RMS density matrix=1.00D-08 within 128 cycles.
 Requested convergence on MAX density matrix=1.00D-06.
 Requested convergence on             energy=1.00D-06.
 No special actions if energy rises.

 Cycle   1  Pass 1  IDiag  1:
 E= -337.625166750928    
 DIIS: error= 4.35D-02 at cycle   1 NSaved=   1.
 NSaved= 1 IEnMin= 1 EnMin= -337.625166750928     IErMin= 1 ErrMin= 4.35D-02
 ErrMax= 4.35D-02  0.00D+00 EMaxC= 1.00D-01 BMatC= 1.01D-01 BMatP= 1.01D-01
 IDIUse=3 WtCom= 5.65D-01 WtEn= 4.35D-01
 Coeff-Com:  0.100D+01
 Coeff-En:   0.100D+01
 Coeff:      0.100D+01
 Gap=     0.037 Goal=   None    Shift=    0.000
 GapD=    0.037 DampG=0.250 DampE=0.500 DampFc=0.2500 IDamp=-1.
 Damping current iteration by 2.50D-01
 RMSDP=5.10D-02 MaxDP=2.67D+00              OVMax= 5.67D-01

 Cycle   2  Pass 1  IDiag  1:
 E= -337.649232763672     Delta-E=       -0.024066012743 Rises=F Damp=T
 DIIS: error= 1.53D-02 at cycle   2 NSaved=   2.
 NSaved= 2 IEnMin= 2 EnMin= -337.649232763672     IErMin= 2 ErrMin= 1.53D-02
 ErrMax= 1.53D-02  0.00D+00 EMaxC= 1.00D-01 BMatC= 1.77D-02 BMatP= 1.01D-01
 IDIUse=3 WtCom= 8.47D-01 WtEn= 1.53D-01
 Coeff-Com: -0.547D+00 0.155D+01
 Coeff-En:   0.000D+00 0.100D+01
 Coeff:     -0.464D+00 0.146D+01
 Gap=     0.100 Goal=   None    Shift=    0.000
 RMSDP=5.47D-03 MaxDP=2.80D-01 DE=-2.41D-02 OVMax= 4.18D-01

 Cycle   3  Pass 1  IDiag  1:
 E= -337.692708022152     Delta-E=       -0.043475258480 Rises=F Damp=F
 DIIS: error= 9.29D-03 at cycle   3 NSaved=   3.
 NSaved= 3 IEnMin= 3 EnMin= -337.692708022152     IErMin= 3 ErrMin= 9.29D-03
 ErrMax= 9.29D-03  0.00D+00 EMaxC= 1.00D-01 BMatC= 6.84D-03 BMatP= 1.77D-02
 IDIUse=3 WtCom= 9.07D-01 WtEn= 9.29D-02
 Coeff-Com: -0.301D+00 0.824D+00 0.477D+00
 Coeff-En:   0.000D+00 0.000D+00 0.100D+01
 Coeff:     -0.273D+00 0.748D+00 0.526D+00
 Gap=     0.110 Goal=   None    Shift=    0.000
 RMSDP=4.56D-03 MaxDP=2.30D-01 DE=-4.35D-02 OVMax= 7.52D-02

 Cycle   4  Pass 1  IDiag  1:
 E= -337.698013612226     Delta-E=       -0.005305590075 Rises=F Damp=F
 DIIS: error= 3.34D-03 at cycle   4 NSaved=   4.
 NSaved= 4 IEnMin= 4 EnMin= -337.698013612226     IErMin= 4 ErrMin= 3.34D-03
 ErrMax= 3.34D-03  0.00D+00 EMaxC= 1.00D-01 BMatC= 1.28D-03 BMatP= 6.84D-03
 IDIUse=3 WtCom= 9.67D-01 WtEn= 3.34D-02
 Coeff-Com: -0.937D-01 0.186D+00 0.299D+00 0.608D+00
 Coeff-En:   0.000D+00 0.000D+00 0.141D+00 0.859D+00
 Coeff:     -0.906D-01 0.180D+00 0.294D+00 0.617D+00
 Gap=     0.120 Goal=   None    Shift=    0.000
 RMSDP=1.69D-03 MaxDP=8.11D-02 DE=-5.31D-03 OVMax= 2.24D-02

 Cycle   5  Pass 1  IDiag  1:
 E= -337.698959591075     Delta-E=       -0.000945978848 Rises=F Damp=F
 DIIS: error= 5.66D-04 at cycle   5 NSaved=   5.
 NSaved= 5 IEnMin= 5 EnMin= -337.698959591075     IErMin= 5 ErrMin= 5.66D-04
 ErrMax= 5.66D-04  0.00D+00 EMaxC= 1.00D-01 BMatC= 2.46D-05 BMatP= 1.28D-03
 IDIUse=3 WtCom= 9.94D-01 WtEn= 5.66D-03
 Coeff-Com: -0.135D-01 0.108D-01 0.184D-01 0.154D+00 0.830D+00
 Coeff-En:   0.000D+00 0.000D+00 0.000D+00 0.000D+00 0.100D+01
 Coeff:     -0.135D-01 0.108D-01 0.183D-01 0.153D+00 0.831D+00
 Gap=     0.120 Goal=   None    Shift=    0.000
 RMSDP=2.16D-04 MaxDP=1.23D-02 DE=-9.46D-04 OVMax= 4.87D-03

 Cycle   6  Pass 1  IDiag  1:
 E= -337.698988669223     Delta-E=       -0.000029078148 Rises=F Damp=F
 DIIS: error= 3.53D-05 at cycle   6 NSaved=   6.
 NSaved= 6 IEnMin= 6 EnMin= -337.698988669223     IErMin= 6 ErrMin= 3.53D-05
 ErrMax= 3.53D-05  0.00D+00 EMaxC= 1.00D-01 BMatC= 9.52D-08 BMatP= 2.46D-05
 IDIUse=1 WtCom= 1.00D+00 WtEn= 0.00D+00
 Coeff-Com: -0.610D-03 0.224D-03-0.147D-02 0.823D-02 0.103D+00 0.890D+00
 Coeff:     -0.610D-03 0.224D-03-0.147D-02 0.823D-02 0.103D+00 0.890D+00
 Gap=     0.120 Goal=   None    Shift=    0.000
 RMSDP=5.40D-05 MaxDP=2.22D-03 DE=-2.91D-05 OVMax= 6.78D-04

 Cycle   7  Pass 1  IDiag  1:
 E= -337.698988875791     Delta-E=       -0.000000206568 Rises=F Damp=F
 DIIS: error= 1.40D-05 at cycle   7 NSaved=   7.
 NSaved= 7 IEnMin= 7 EnMin= -337.698988875791     IErMin= 7 ErrMin= 1.40D-05
 ErrMax= 1.40D-05  0.00D+00 EMaxC= 1.00D-01 BMatC= 1.10D-08 BMatP= 9.52D-08
 IDIUse=1 WtCom= 1.00D+00 WtEn= 0.00D+00
 Coeff-Com:  0.539D-03-0.681D-03-0.163D-02-0.640D-02-0.174D-01 0.203D+00
 Coeff-Com:  0.822D+00
 Coeff:      0.539D-03-0.681D-03-0.163D-02-0.640D-02-0.174D-01 0.203D+00
 Coeff:      0.822D+00
 Gap=     0.120 Goal=   None    Shift=    0.000
 RMSDP=1.18D-05 MaxDP=4.33D-04 DE=-2.07D-07 OVMax= 1.52D-04

 Cycle   8  Pass 1  IDiag  1:
 E= -337.698988890321     Delta-E=       -0.000000014531 Rises=F Damp=F
 DIIS: error= 3.80D-06 at cycle   8 NSaved=   8.
 NSaved= 8 IEnMin= 8 EnMin= -337.698988890321     IErMin= 8 ErrMin= 3.80D-06
 ErrMax= 3.80D-06  0.00D+00 EMaxC= 1.00D-01 BMatC= 9.43D-10 BMatP= 1.10D-08
 IDIUse=1 WtCom= 1.00D+00 WtEn= 0.00D+00
 Coeff-Com: -0.952D-04 0.154D-03-0.115D-03-0.680D-03-0.559D-02-0.185D-01
 Coeff-Com: -0.306D-02 0.103D+01
 Coeff:     -0.952D-04 0.154D-03-0.115D-03-0.680D-03-0.559D-02-0.185D-01
 Coeff:     -0.306D-02 0.103D+01
 Gap=     0.120 Goal=   None    Shift=    0.000
 RMSDP=1.94D-06 MaxDP=6.51D-05 DE=-1.45D-08 OVMax= 4.46D-05

 Cycle   9  Pass 1  IDiag  1:
 E= -337.698988891643     Delta-E=       -0.000000001322 Rises=F Damp=F
 DIIS: error= 7.84D-07 at cycle   9 NSaved=   9.
 NSaved= 9 IEnMin= 9 EnMin= -337.698988891643     IErMin= 9 ErrMin= 7.84D-07
 ErrMax= 7.84D-07  0.00D+00 EMaxC= 1.00D-01 BMatC= 6.10D-11 BMatP= 9.43D-10
 IDIUse=1 WtCom= 1.00D+00 WtEn= 0.00D+00
 Coeff-Com: -0.203D-04 0.246D-04-0.446D-05 0.778D-04-0.280D-03 0.312D-03
 Coeff-Com: -0.457D-02-0.113D+00 0.112D+01
 Coeff:     -0.203D-04 0.246D-04-0.446D-05 0.778D-04-0.280D-03 0.312D-03
 Coeff:     -0.457D-02-0.113D+00 0.112D+01
 Gap=     0.120 Goal=   None    Shift=    0.000
 RMSDP=2.77D-07 MaxDP=8.58D-06 DE=-1.32D-09 OVMax= 6.87D-06

 Cycle  10  Pass 1  IDiag  1:
 E= -337.698988891711     Delta-E=       -0.000000000069 Rises=F Damp=F
 DIIS: error= 8.68D-08 at cycle  10 NSaved=  10.
 NSaved=10 IEnMin=10 EnMin= -337.698988891711     IErMin=10 ErrMin= 8.68D-08
 ErrMax= 8.68D-08  0.00D+00 EMaxC= 1.00D-01 BMatC= 7.91D-13 BMatP= 6.10D-11
 IDIUse=1 WtCom= 1.00D+00 WtEn= 0.00D+00
 Coeff-Com: -0.270D-05 0.404D-05-0.352D-05 0.554D-05-0.692D-04 0.224D-03
 Coeff-Com:  0.585D-03-0.823D-02 0.418D-01 0.966D+00
 Coeff:     -0.270D-05 0.404D-05-0.352D-05 0.554D-05-0.692D-04 0.224D-03
 Coeff:      0.585D-03-0.823D-02 0.418D-01 0.966D+00
 Gap=     0.120 Goal=   None    Shift=    0.000
 RMSDP=2.19D-08 MaxDP=1.06D-06 DE=-6.87D-11 OVMax= 3.69D-07

 Cycle  11  Pass 1  IDiag  1:
 E= -337.698988891712     Delta-E=       -0.000000000000 Rises=F Damp=F
 DIIS: error= 2.37D-08 at cycle  11 NSaved=  11.
 NSaved=11 IEnMin=11 EnMin= -337.698988891712     IErMin=11 ErrMin= 2.37D-08
 ErrMax= 2.37D-08  0.00D+00 EMaxC= 1.00D-01 BMatC= 4.94D-14 BMatP= 7.91D-13
 IDIUse=1 WtCom= 1.00D+00 WtEn= 0.00D+00
 Coeff-Com: -0.892D-07 0.112D-06-0.883D-06-0.174D-06-0.342D-05 0.547D-04
 Coeff-Com:  0.156D-03 0.150D-02-0.301D-01 0.730D-01 0.955D+00
 Coeff:     -0.892D-07 0.112D-06-0.883D-06-0.174D-06-0.342D-05 0.547D-04
 Coeff:      0.156D-03 0.150D-02-0.301D-01 0.730D-01 0.955D+00
 Gap=     0.120 Goal=   None    Shift=    0.000
 RMSDP=7.95D-09 MaxDP=4.18D-07 DE=-3.41D-13 OVMax= 1.44D-07

 SCF Done:  E(RB3LYP) =  -337.698988892     A.U. after   11 cycles
            NFock= 11  Conv=0.80D-08     -V/T= 2.0014
 KE= 3.372150529742D+02 PE=-1.060126729031D+03 EE= 2.614733804050D+02
 Leave Link  502 at Wed Sep  5 16:47:06 2018, MaxMem=   805306368 cpu:               4.5 elap:               0.6
 (Enter /home/g16/l601.exe)
 Copying SCF densities to generalized density rwf, IOpCl= 0 IROHF=0.

 **********************************************************************

            Population analysis using the SCF density.

 **********************************************************************

 Orbital symmetries:
       Occupied  (A1) (E) (E) (A1) (A1) (E) (E) (A1) (E) (E) (A1)
                 (E) (E) (E) (E) (A2) (A1)
       Virtual   (A1) (E) (E) (A1) (E) (E) (A1) (E) (E) (A1) (E)
                 (E) (A1) (A2) (E) (E) (A1) (E) (E) (A1) (E) (E)
                 (A1) (E) (E) (A1) (E) (E) (E) (E) (A1) (E) (E)
                 (A1) (A2) (E) (E) (E) (E) (E) (E) (A2) (A1) (A1)
                 (E) (E) (A2) (E) (E) (A1) (E) (E) (E) (E) (A1)
                 (A1) (E) (E) (E) (E) (A1) (E) (E) (E) (E) (A1)
                 (E) (E) (A2) (A1) (E) (E) (A2) (E) (E) (A1) (E)
                 (E) (A2) (E) (E) (A1) (E) (E) (A1) (E) (E) (A1)
                 (E) (E) (A1)
 The electronic state is 1-A1.
 Alpha  occ. eigenvalues --  -24.48410 -24.48410 -24.48410 -10.10423  -1.08631
 Alpha  occ. eigenvalues --   -1.00660  -1.00660  -0.46616  -0.36842  -0.36842
 Alpha  occ. eigenvalues --   -0.31130  -0.24981  -0.24981  -0.21892  -0.21892
 Alpha  occ. eigenvalues --   -0.19620   0.06306
 Alpha virt. eigenvalues --    0.18290   0.19873   0.19873   0.21503   0.36639
 Alpha virt. eigenvalues --    0.36639   0.38745   0.41235   0.41235   0.43190
 Alpha virt. eigenvalues --    0.46518   0.46518   0.47147   0.48435   0.50158
 Alpha virt. eigenvalues --    0.50158   0.50648   0.58248   0.58248   0.78407
 Alpha virt. eigenvalues --    0.83018   0.83018   1.00441   1.09305   1.09305
 Alpha virt. eigenvalues --    1.22295   1.34389   1.34389   1.46145   1.46145
 Alpha virt. eigenvalues --    1.49414   1.51651   1.51651   1.57274   1.59464
 Alpha virt. eigenvalues --    1.65624   1.65624   2.02639   2.02639   2.18430
 Alpha virt. eigenvalues --    2.18430   2.18575   2.20032   2.21825   2.27118
 Alpha virt. eigenvalues --    2.27118   2.34558   2.52566   2.52566   2.62624
 Alpha virt. eigenvalues --    2.82531   2.82531   2.96184   2.96184   3.07166
 Alpha virt. eigenvalues --    3.31996   3.57748   3.57748   3.67668   3.67668
 Alpha virt. eigenvalues --    3.72534   4.38582   4.38582   6.47153   6.47153
 Alpha virt. eigenvalues --    6.48930   6.54498   6.54498   6.55766   6.60428
 Alpha virt. eigenvalues --    6.97800   6.97800   9.22497   9.23665   9.23665
 Alpha virt. eigenvalues --    9.24814   9.33575   9.33575   9.34855   9.39906
 Alpha virt. eigenvalues --    9.39906   9.59053   9.76075   9.76075   9.79791
 Alpha virt. eigenvalues --    9.96818   9.96818  24.17842  66.99318  66.99318
 Alpha virt. eigenvalues --   67.06094
     Molecular Orbital Coefficients:
                           1         2         3         4         5
                        (A1)--O   (E)--O    (E)--O    (A1)--O   (A1)--O
     Eigenvalues --   -24.48410 -24.48410 -24.48410 -10.10423  -1.08631
   1 1   C  1S          0.00006   0.00000   0.00000   0.56323  -0.05356
   2        2S         -0.00023  -0.00000   0.00000   0.46327  -0.08133
   3        2PX         0.00000   0.00000  -0.00013   0.00000   0.00000
   4        2PY         0.00000  -0.00013   0.00000  -0.00000  -0.00000
   5        2PZ         0.00007   0.00000   0.00000  -0.00322  -0.03375
   6        3S          0.00023   0.00000   0.00000   0.01820   0.21699
   7        3PX         0.00000   0.00000   0.00195   0.00000   0.00000
   8        3PY        -0.00000   0.00195   0.00000   0.00000  -0.00000
   9        3PZ        -0.00100  -0.00000   0.00000  -0.00073  -0.04248
  10        4S          0.01381   0.00000   0.00000  -0.01046  -0.12932
  11        4PX         0.00000   0.00000   0.00295   0.00000   0.00000
  12        4PY        -0.00000   0.00295   0.00000   0.00000   0.00000
  13        4PZ        -0.00345  -0.00000   0.00000   0.00002   0.04242
  14        5S         -0.00069  -0.00000   0.00000  -0.00027   0.00227
  15        5PX         0.00000   0.00000  -0.00067   0.00000   0.00000
  16        5PY         0.00000  -0.00067   0.00000   0.00000   0.00000
  17        5PZ         0.00016   0.00000   0.00000  -0.00012  -0.00062
  18        6D 0       -0.00003  -0.00000   0.00000  -0.00075  -0.00899
  19        6D+1        0.00000   0.00000  -0.00003   0.00000   0.00000
  20        6D-1        0.00000  -0.00003   0.00000   0.00000   0.00000
  21        6D+2        0.00000  -0.00015   0.00000   0.00000   0.00000
  22        6D-2        0.00000   0.00000  -0.00015   0.00000   0.00000
  23        7D 0       -0.00129  -0.00000   0.00000  -0.00067   0.00986
  24        7D+1        0.00000   0.00000  -0.00105   0.00000   0.00000
  25        7D-1        0.00000  -0.00105   0.00000  -0.00000  -0.00000
  26        7D+2        0.00000  -0.00085   0.00000  -0.00000  -0.00000
  27        7D-2        0.00000   0.00000  -0.00085   0.00000   0.00000
  28 2   F  1S          0.31619   0.44717   0.00000  -0.00004  -0.06561
  29        2S          0.27242   0.38530   0.00000  -0.00012  -0.10591
  30        2PX         0.00000   0.00000   0.00000   0.00000   0.00000
  31        2PY        -0.00043  -0.00064   0.00000  -0.00018  -0.02980
  32        2PZ         0.00004   0.00007   0.00000   0.00004   0.00516
  33        3S          0.00756   0.01028   0.00000   0.00110   0.30983
  34        3PX         0.00000   0.00000   0.00001   0.00000   0.00000
  35        3PY        -0.00008   0.00004   0.00000  -0.00001  -0.04818
  36        3PZ         0.00004  -0.00000   0.00000   0.00007   0.00880
  37        4S         -0.00700  -0.00816   0.00000  -0.00299   0.26470
  38        4PX         0.00000   0.00000  -0.00037   0.00000   0.00000
  39        4PY         0.00235   0.00210   0.00000   0.00251  -0.04599
  40        4PZ        -0.00057  -0.00048   0.00000  -0.00102   0.00774
  41        5S         -0.00091   0.00263   0.00000   0.00263   0.02358
  42        5PX         0.00000   0.00000  -0.00040   0.00000   0.00000
  43        5PY         0.00067  -0.00080   0.00000  -0.00195  -0.00788
  44        5PZ         0.00008  -0.00014   0.00000   0.00091  -0.00237
  45        6D 0       -0.00006  -0.00008   0.00000  -0.00012  -0.00080
  46        6D+1        0.00000   0.00000  -0.00001   0.00000   0.00000
  47        6D-1       -0.00007  -0.00009   0.00000  -0.00017  -0.00061
  48        6D+2       -0.00011  -0.00016   0.00000  -0.00025  -0.00145
  49        6D-2        0.00000   0.00000  -0.00003   0.00000   0.00000
  50        7D 0        0.00021   0.00025   0.00000   0.00053  -0.00511
  51        7D+1        0.00000   0.00000   0.00003   0.00000   0.00000
  52        7D-1        0.00020   0.00026   0.00000   0.00076  -0.00401
  53        7D+2        0.00033   0.00050   0.00000   0.00108  -0.00836
  54        7D-2        0.00000   0.00000   0.00016   0.00000   0.00000
  55 3   F  1S          0.31619  -0.22358   0.38726  -0.00004  -0.06561
  56        2S          0.27242  -0.19265   0.33368  -0.00012  -0.10591
  57        2PX        -0.00037   0.00028  -0.00048  -0.00016  -0.02581
  58        2PY         0.00022  -0.00016   0.00028   0.00009   0.01490
  59        2PZ         0.00004  -0.00003   0.00006   0.00004   0.00516
  60        3S          0.00756  -0.00514   0.00890   0.00110   0.30983
  61        3PX        -0.00007  -0.00001   0.00003  -0.00001  -0.04172
  62        3PY         0.00004   0.00002  -0.00001   0.00001   0.02409
  63        3PZ         0.00004   0.00000  -0.00000   0.00007   0.00880
  64        4S         -0.00700   0.00408  -0.00707  -0.00299   0.26470
  65        4PX         0.00204  -0.00107   0.00148   0.00217  -0.03983
  66        4PY        -0.00118   0.00025  -0.00107  -0.00125   0.02300
  67        4PZ        -0.00057   0.00024  -0.00041  -0.00102   0.00774
  68        5S         -0.00091  -0.00131   0.00227   0.00263   0.02358
  69        5PX         0.00058   0.00017  -0.00070  -0.00169  -0.00682
  70        5PY        -0.00033  -0.00050   0.00017   0.00098   0.00394
  71        5PZ         0.00008   0.00007  -0.00012   0.00091  -0.00237
  72        6D 0       -0.00006   0.00004  -0.00007  -0.00012  -0.00080
  73        6D+1       -0.00006   0.00003  -0.00007  -0.00015  -0.00053
  74        6D-1        0.00003  -0.00003   0.00003   0.00008   0.00031
  75        6D+2        0.00006  -0.00006   0.00005   0.00012   0.00072
  76        6D-2       -0.00010   0.00005  -0.00013  -0.00021  -0.00125
  77        7D 0        0.00021  -0.00012   0.00021   0.00053  -0.00511
  78        7D+1        0.00018  -0.00010   0.00020   0.00065  -0.00347
  79        7D-1       -0.00010   0.00009  -0.00010  -0.00038   0.00201
  80        7D+2       -0.00017   0.00024  -0.00015  -0.00054   0.00418
  81        7D-2        0.00029  -0.00015   0.00041   0.00093  -0.00724
  82 4   F  1S          0.31619  -0.22358  -0.38726  -0.00004  -0.06561
  83        2S          0.27242  -0.19265  -0.33368  -0.00012  -0.10591
  84        2PX         0.00037  -0.00028  -0.00048   0.00016   0.02581
  85        2PY         0.00022  -0.00016  -0.00028   0.00009   0.01490
  86        2PZ         0.00004  -0.00003  -0.00006   0.00004   0.00516
  87        3S          0.00756  -0.00514  -0.00890   0.00110   0.30983
  88        3PX         0.00007   0.00001   0.00003   0.00001   0.04172
  89        3PY         0.00004   0.00002   0.00001   0.00001   0.02409
  90        3PZ         0.00004   0.00000   0.00000   0.00007   0.00880
  91        4S         -0.00700   0.00408   0.00707  -0.00299   0.26470
  92        4PX        -0.00204   0.00107   0.00148  -0.00217   0.03983
  93        4PY        -0.00118   0.00025   0.00107  -0.00125   0.02300
  94        4PZ        -0.00057   0.00024   0.00041  -0.00102   0.00774
  95        5S         -0.00091  -0.00131  -0.00227   0.00263   0.02358
  96        5PX        -0.00058  -0.00017  -0.00070   0.00169   0.00682
  97        5PY        -0.00033  -0.00050  -0.00017   0.00098   0.00394
  98        5PZ         0.00008   0.00007   0.00012   0.00091  -0.00237
  99        6D 0       -0.00006   0.00004   0.00007  -0.00012  -0.00080
 100        6D+1        0.00006  -0.00003  -0.00007   0.00015   0.00053
 101        6D-1        0.00003  -0.00003  -0.00003   0.00008   0.00031
 102        6D+2        0.00006  -0.00006  -0.00005   0.00012   0.00072
 103        6D-2        0.00010  -0.00005  -0.00013   0.00021   0.00125
 104        7D 0        0.00021  -0.00012  -0.00021   0.00053  -0.00511
 105        7D+1       -0.00018   0.00010   0.00020  -0.00065   0.00347
 106        7D-1       -0.00010   0.00009   0.00010  -0.00038   0.00201
 107        7D+2       -0.00017   0.00024   0.00015  -0.00054   0.00418
 108        7D-2       -0.00029   0.00015   0.00041  -0.00093   0.00724
                           6         7         8         9        10
                        (E)--O    (E)--O    (A1)--O   (E)--O    (E)--O
     Eigenvalues --    -1.00660  -1.00660  -0.46616  -0.36842  -0.36842
   1 1   C  1S         -0.00000   0.00000  -0.07907   0.00000   0.00000
   2        2S         -0.00000   0.00000  -0.12488   0.00000   0.00000
   3        2PX         0.00000   0.07017   0.00000   0.00000   0.14776
   4        2PY         0.07017   0.00000  -0.00000  -0.14776   0.00000
   5        2PZ        -0.00000   0.00000  -0.04721   0.00000   0.00000
   6        3S         -0.00000   0.00000   0.36822  -0.00000   0.00000
   7        3PX         0.00000   0.07915   0.00000   0.00000   0.20860
   8        3PY         0.07915   0.00000  -0.00000  -0.20860   0.00000
   9        3PZ         0.00000   0.00000  -0.07611  -0.00000   0.00000
  10        4S          0.00000   0.00000   0.09256   0.00000   0.00000
  11        4PX         0.00000  -0.00464   0.00000   0.00000   0.05110
  12        4PY        -0.00464   0.00000  -0.00000  -0.05110   0.00000
  13        4PZ        -0.00000   0.00000   0.01102  -0.00000   0.00000
  14        5S          0.00000   0.00000  -0.02505   0.00000   0.00000
  15        5PX         0.00000   0.00820   0.00000   0.00000  -0.00077
  16        5PY         0.00820   0.00000  -0.00000   0.00077   0.00000
  17        5PZ        -0.00000   0.00000   0.01014  -0.00000   0.00000
  18        6D 0        0.00000   0.00000  -0.00487   0.00000   0.00000
  19        6D+1        0.00000  -0.01268   0.00000   0.00000  -0.01662
  20        6D-1       -0.01268   0.00000   0.00000   0.01662   0.00000
  21        6D+2       -0.01494   0.00000   0.00000   0.00905   0.00000
  22        6D-2        0.00000  -0.01494   0.00000   0.00000  -0.00905
  23        7D 0       -0.00000   0.00000   0.00700  -0.00000   0.00000
  24        7D+1        0.00000  -0.00799   0.00000   0.00000  -0.02369
  25        7D-1       -0.00799   0.00000   0.00000   0.02369   0.00000
  26        7D+2       -0.00470   0.00000  -0.00000   0.00032   0.00000
  27        7D-2        0.00000  -0.00470   0.00000   0.00000  -0.00032
  28 2   F  1S         -0.10237   0.00000   0.03238  -0.02439   0.00000
  29        2S         -0.16574   0.00000   0.05304  -0.03988   0.00000
  30        2PX         0.00000   0.00620   0.00000   0.00000   0.09848
  31        2PY        -0.02885   0.00000  -0.12935   0.18522   0.00000
  32        2PZ         0.00810   0.00000   0.02621  -0.07174   0.00000
  33        3S          0.49262   0.00000  -0.16657   0.12426   0.00000
  34        3PX         0.00000   0.00955   0.00000   0.00000   0.14284
  35        3PY        -0.04946   0.00000  -0.18673   0.26858   0.00000
  36        3PZ         0.01376   0.00000   0.03768  -0.10377   0.00000
  37        4S          0.38729   0.00000  -0.15659   0.14724   0.00000
  38        4PX         0.00000   0.00545   0.00000   0.00000   0.11268
  39        4PY        -0.03253   0.00000  -0.14158   0.19529   0.00000
  40        4PZ         0.00712   0.00000   0.02929  -0.08094   0.00000
  41        5S         -0.03028   0.00000  -0.00963   0.03164   0.00000
  42        5PX         0.00000   0.00519   0.00000   0.00000   0.01250
  43        5PY         0.01525   0.00000  -0.01251   0.02908   0.00000
  44        5PZ         0.00008   0.00000  -0.00223  -0.01140   0.00000
  45        6D 0       -0.00070   0.00000  -0.00145   0.00162   0.00000
  46        6D+1        0.00000   0.00001   0.00000   0.00000   0.00032
  47        6D-1       -0.00108   0.00000  -0.00098   0.00205   0.00000
  48        6D+2       -0.00164   0.00000  -0.00261   0.00337   0.00000
  49        6D-2        0.00000  -0.00065   0.00000   0.00000  -0.00217
  50        7D 0       -0.00542   0.00000  -0.00496   0.00476   0.00000
  51        7D+1        0.00000   0.00044   0.00000   0.00000   0.00280
  52        7D-1       -0.00502   0.00000  -0.00341   0.00772   0.00000
  53        7D+2       -0.00965   0.00000  -0.00958   0.00952   0.00000
  54        7D-2        0.00000  -0.00087   0.00000   0.00000  -0.00920
  55 3   F  1S          0.05118  -0.08865   0.03238   0.01220   0.02112
  56        2S          0.08287  -0.14354   0.05304   0.01994   0.03454
  57        2PX         0.01518  -0.02008  -0.11202  -0.12285  -0.11430
  58        2PY        -0.00256   0.01518   0.06467  -0.02756   0.12285
  59        2PZ        -0.00405   0.00702   0.02621   0.03587   0.06213
  60        3S         -0.24631   0.42662  -0.16657  -0.06213  -0.10761
  61        3PX         0.02555  -0.03471  -0.16171  -0.17815  -0.16573
  62        3PY        -0.00520   0.02555   0.09336  -0.03999   0.17815
  63        3PZ        -0.00688   0.01191   0.03768   0.05189   0.08987
  64        4S         -0.19364   0.33540  -0.15659  -0.07362  -0.12751
  65        4PX         0.01645  -0.02303  -0.12261  -0.13335  -0.11830
  66        4PY        -0.00404   0.01645   0.07079  -0.03568   0.13335
  67        4PZ        -0.00356   0.00617   0.02929   0.04047   0.07009
  68        5S          0.01514  -0.02622  -0.00963  -0.01582  -0.02740
  69        5PX        -0.00435   0.01273  -0.01083  -0.01800  -0.01868
  70        5PY         0.00770  -0.00435   0.00626  -0.00211   0.01800
  71        5PZ        -0.00004   0.00007  -0.00223   0.00570   0.00987
  72        6D 0        0.00035  -0.00060  -0.00145  -0.00081  -0.00140
  73        6D+1        0.00048  -0.00081  -0.00085  -0.00102  -0.00146
  74        6D-1       -0.00026   0.00048   0.00049   0.00028   0.00102
  75        6D+2       -0.00090   0.00043   0.00131   0.00247   0.00052
  76        6D-2        0.00043  -0.00139  -0.00226  -0.00052  -0.00307
  77        7D 0        0.00271  -0.00469  -0.00496  -0.00238  -0.00413
  78        7D+1        0.00236  -0.00365  -0.00295  -0.00456  -0.00509
  79        7D-1       -0.00092   0.00236   0.00170  -0.00017   0.00456
  80        7D+2       -0.00306   0.00381   0.00479   0.00928   0.00014
  81        7D-2        0.00381  -0.00746  -0.00830  -0.00014  -0.00944
  82 4   F  1S          0.05118   0.08865   0.03238   0.01220  -0.02112
  83        2S          0.08287   0.14354   0.05304   0.01994  -0.03454
  84        2PX        -0.01518  -0.02008   0.11202   0.12285  -0.11430
  85        2PY        -0.00256  -0.01518   0.06467  -0.02756  -0.12285
  86        2PZ        -0.00405  -0.00702   0.02621   0.03587  -0.06213
  87        3S         -0.24631  -0.42662  -0.16657  -0.06213   0.10761
  88        3PX        -0.02555  -0.03471   0.16171   0.17815  -0.16573
  89        3PY        -0.00520  -0.02555   0.09336  -0.03999  -0.17815
  90        3PZ        -0.00688  -0.01191   0.03768   0.05189  -0.08987
  91        4S         -0.19364  -0.33540  -0.15659  -0.07362   0.12751
  92        4PX        -0.01645  -0.02303   0.12261   0.13335  -0.11830
  93        4PY        -0.00404  -0.01645   0.07079  -0.03568  -0.13335
  94        4PZ        -0.00356  -0.00617   0.02929   0.04047  -0.07009
  95        5S          0.01514   0.02622  -0.00963  -0.01582   0.02740
  96        5PX         0.00435   0.01273   0.01083   0.01800  -0.01868
  97        5PY         0.00770   0.00435   0.00626  -0.00211  -0.01800
  98        5PZ        -0.00004  -0.00007  -0.00223   0.00570  -0.00987
  99        6D 0        0.00035   0.00060  -0.00145  -0.00081   0.00140
 100        6D+1       -0.00048  -0.00081   0.00085   0.00102  -0.00146
 101        6D-1       -0.00026  -0.00048   0.00049   0.00028  -0.00102
 102        6D+2       -0.00090  -0.00043   0.00131   0.00247  -0.00052
 103        6D-2       -0.00043  -0.00139   0.00226   0.00052  -0.00307
 104        7D 0        0.00271   0.00469  -0.00496  -0.00238   0.00413
 105        7D+1       -0.00236  -0.00365   0.00295   0.00456  -0.00509
 106        7D-1       -0.00092  -0.00236   0.00170  -0.00017  -0.00456
 107        7D+2       -0.00306  -0.00381   0.00479   0.00928  -0.00014
 108        7D-2       -0.00381  -0.00746   0.00830   0.00014  -0.00944
                          11        12        13        14        15
                        (A1)--O   (E)--O    (E)--O    (E)--O    (E)--O
     Eigenvalues --    -0.31130  -0.24981  -0.24981  -0.21892  -0.21892
   1 1   C  1S         -0.02236  -0.00000   0.00000   0.00000   0.00000
   2        2S         -0.03526  -0.00000   0.00000   0.00000   0.00000
   3        2PX         0.00000   0.00000  -0.03328   0.00000  -0.00987
   4        2PY        -0.00000  -0.03328   0.00000  -0.00987   0.00000
   5        2PZ         0.10800  -0.00000   0.00000   0.00000   0.00000
   6        3S          0.10142   0.00000   0.00000  -0.00000   0.00000
   7        3PX         0.00000   0.00000  -0.02773   0.00000  -0.00403
   8        3PY        -0.00000  -0.02773   0.00000  -0.00403   0.00000
   9        3PZ         0.15816  -0.00000   0.00000   0.00000   0.00000
  10        4S          0.08196  -0.00000   0.00000   0.00000   0.00000
  11        4PX         0.00000   0.00000  -0.00890   0.00000  -0.02499
  12        4PY        -0.00000  -0.00890   0.00000  -0.02499   0.00000
  13        4PZ         0.07860   0.00000   0.00000  -0.00000   0.00000
  14        5S         -0.00587  -0.00000   0.00000   0.00000   0.00000
  15        5PX         0.00000   0.00000   0.02143   0.00000   0.02690
  16        5PY        -0.00000   0.02143   0.00000   0.02690   0.00000
  17        5PZ         0.02621   0.00000   0.00000  -0.00000   0.00000
  18        6D 0       -0.01666   0.00000   0.00000  -0.00000   0.00000
  19        6D+1        0.00000   0.00000  -0.00349   0.00000   0.01653
  20        6D-1        0.00000  -0.00349   0.00000   0.01653   0.00000
  21        6D+2        0.00000   0.02610   0.00000   0.00840   0.00000
  22        6D-2        0.00000   0.00000   0.02610   0.00000   0.00840
  23        7D 0       -0.02998   0.00000   0.00000  -0.00000   0.00000
  24        7D+1        0.00000   0.00000  -0.01264   0.00000   0.02097
  25        7D-1       -0.00000  -0.01264   0.00000   0.02097   0.00000
  26        7D+2        0.00000   0.02901   0.00000   0.01639   0.00000
  27        7D-2        0.00000   0.00000   0.02901   0.00000   0.01639
  28 2   F  1S         -0.00051   0.00042   0.00000   0.00084   0.00000
  29        2S         -0.00090   0.00085   0.00000   0.00147   0.00000
  30        2PX         0.00000   0.00000   0.20584   0.00000   0.09836
  31        2PY         0.03622   0.06152   0.00000   0.13856   0.00000
  32        2PZ         0.15149  -0.14006   0.00000   0.20397   0.00000
  33        3S          0.00380  -0.00374   0.00000  -0.00532   0.00000
  34        3PX         0.00000   0.00000   0.29566   0.00000   0.14031
  35        3PY         0.05146   0.09269   0.00000   0.20091   0.00000
  36        3PZ         0.21844  -0.20337   0.00000   0.29227   0.00000
  37        4S         -0.00449  -0.00487   0.00000   0.00370   0.00000
  38        4PX         0.00000   0.00000   0.25621   0.00000   0.12813
  39        4PY         0.04678   0.07314   0.00000   0.17295   0.00000
  40        4PZ         0.18071  -0.16723   0.00000   0.26119   0.00000
  41        5S         -0.00020   0.03307   0.00000   0.01648   0.00000
  42        5PX         0.00000   0.00000   0.03819   0.00000   0.01784
  43        5PY         0.00844  -0.00808   0.00000   0.01481   0.00000
  44        5PZ         0.01625  -0.03342   0.00000   0.04901   0.00000
  45        6D 0        0.00074  -0.00004   0.00000   0.00069   0.00000
  46        6D+1        0.00000   0.00000   0.00029   0.00000   0.00027
  47        6D-1       -0.00199   0.00157   0.00000  -0.00075   0.00000
  48        6D+2        0.00050   0.00102   0.00000   0.00106   0.00000
  49        6D-2        0.00000   0.00000  -0.00164   0.00000  -0.00033
  50        7D 0        0.00464   0.00079   0.00000   0.00735   0.00000
  51        7D+1        0.00000   0.00000   0.00076   0.00000   0.00214
  52        7D-1       -0.01264   0.00935   0.00000  -0.01020   0.00000
  53        7D+2        0.00321   0.00625   0.00000   0.01007   0.00000
  54        7D-2        0.00000   0.00000  -0.01263   0.00000  -0.00562
  55 3   F  1S         -0.00051  -0.00021   0.00037  -0.00042   0.00073
  56        2S         -0.00090  -0.00043   0.00074  -0.00073   0.00127
  57        2PX         0.03137   0.06249   0.09760  -0.01741   0.12851
  58        2PY        -0.01811   0.16976   0.06249   0.10841  -0.01741
  59        2PZ         0.15149   0.07003  -0.12130  -0.10199   0.17665
  60        3S          0.00380   0.00187  -0.00324   0.00266  -0.00461
  61        3PX         0.04457   0.08789   0.14343  -0.02624   0.18576
  62        3PY        -0.02573   0.24492   0.08789   0.15546  -0.02624
  63        3PZ         0.21844   0.10168  -0.17612  -0.14613   0.25311
  64        4S         -0.00449   0.00243  -0.00422  -0.00185   0.00320
  65        4PX         0.04051   0.07927   0.11891  -0.01941   0.16175
  66        4PY        -0.02339   0.21044   0.07927   0.13934  -0.01941
  67        4PZ         0.18071   0.08361  -0.14482  -0.13059   0.22620
  68        5S         -0.00020  -0.01653   0.02864  -0.00824   0.01427
  69        5PX         0.00731   0.02004   0.00349   0.00131   0.01556
  70        5PY        -0.00422   0.02662   0.02004   0.01708   0.00131
  71        5PZ         0.01625   0.01671  -0.02894  -0.02450   0.04244
  72        6D 0        0.00074   0.00002  -0.00003  -0.00035   0.00060
  73        6D+1       -0.00172  -0.00055   0.00125   0.00044  -0.00050
  74        6D-1        0.00099   0.00061  -0.00055   0.00001   0.00044
  75        6D+2       -0.00025  -0.00098  -0.00115   0.00002  -0.00060
  76        6D-2        0.00043  -0.00115   0.00035  -0.00060   0.00071
  77        7D 0        0.00464  -0.00039   0.00068  -0.00368   0.00637
  78        7D+1       -0.01094  -0.00372   0.00720   0.00534  -0.00711
  79        7D-1        0.00632   0.00291  -0.00372  -0.00094   0.00534
  80        7D+2       -0.00160  -0.00791  -0.00817  -0.00170  -0.00679
  81        7D-2        0.00278  -0.00817   0.00153  -0.00679   0.00615
  82 4   F  1S         -0.00051  -0.00021  -0.00037  -0.00042  -0.00073
  83        2S         -0.00090  -0.00043  -0.00074  -0.00073  -0.00127
  84        2PX        -0.03137  -0.06249   0.09760   0.01741   0.12851
  85        2PY        -0.01811   0.16976  -0.06249   0.10841   0.01741
  86        2PZ         0.15149   0.07003   0.12130  -0.10199  -0.17665
  87        3S          0.00380   0.00187   0.00324   0.00266   0.00461
  88        3PX        -0.04457  -0.08789   0.14343   0.02624   0.18576
  89        3PY        -0.02573   0.24492  -0.08789   0.15546   0.02624
  90        3PZ         0.21844   0.10168   0.17612  -0.14613  -0.25311
  91        4S         -0.00449   0.00243   0.00422  -0.00185  -0.00320
  92        4PX        -0.04051  -0.07927   0.11891   0.01941   0.16175
  93        4PY        -0.02339   0.21044  -0.07927   0.13934   0.01941
  94        4PZ         0.18071   0.08361   0.14482  -0.13059  -0.22620
  95        5S         -0.00020  -0.01653  -0.02864  -0.00824  -0.01427
  96        5PX        -0.00731  -0.02004   0.00349  -0.00131   0.01556
  97        5PY        -0.00422   0.02662  -0.02004   0.01708  -0.00131
  98        5PZ         0.01625   0.01671   0.02894  -0.02450  -0.04244
  99        6D 0        0.00074   0.00002   0.00003  -0.00035  -0.00060
 100        6D+1        0.00172   0.00055   0.00125  -0.00044  -0.00050
 101        6D-1        0.00099   0.00061   0.00055   0.00001  -0.00044
 102        6D+2       -0.00025  -0.00098   0.00115   0.00002   0.00060
 103        6D-2       -0.00043   0.00115   0.00035   0.00060   0.00071
 104        7D 0        0.00464  -0.00039  -0.00068  -0.00368  -0.00637
 105        7D+1        0.01094   0.00372   0.00720  -0.00534  -0.00711
 106        7D-1        0.00632   0.00291   0.00372  -0.00094  -0.00534
 107        7D+2       -0.00160  -0.00791   0.00817  -0.00170   0.00679
 108        7D-2       -0.00278   0.00817   0.00153   0.00679   0.00615
                          16        17        18        19        20
                        (A2)--O   (A1)--O   (A1)--V   (E)--V    (E)--V
     Eigenvalues --    -0.19620   0.06306   0.18290   0.19873   0.19873
   1 1   C  1S          0.00000  -0.05189   0.00881   0.00000   0.00000
   2        2S          0.00000  -0.08305   0.01617   0.00000   0.00000
   3        2PX         0.00000   0.00000   0.00000   0.00000   0.02431
   4        2PY         0.00000  -0.00000   0.00000   0.02431   0.00000
   5        2PZ         0.00000   0.20930  -0.08633   0.00000   0.00000
   6        3S          0.00000   0.21571  -0.13252   0.00000   0.00000
   7        3PX         0.00000   0.00000   0.00000   0.00000   0.02387
   8        3PY         0.00000  -0.00000  -0.00000   0.02387   0.00000
   9        3PZ         0.00000   0.29402  -0.11982   0.00000   0.00000
  10        4S          0.00000   0.82942   1.18543  -0.00000   0.00000
  11        4PX        -0.00000   0.00000   0.00000   0.00000   0.37234
  12        4PY         0.00000  -0.00000  -0.00000   0.37234   0.00000
  13        4PZ         0.00000   0.22989  -0.53343   0.00000   0.00000
  14        5S          0.00000   0.77335   2.31867  -0.00000   0.00000
  15        5PX        -0.00000   0.00000   0.00000   0.00000   1.74765
  16        5PY         0.00000  -0.00000   0.00000   1.74765   0.00000
  17        5PZ         0.00000   0.03041  -1.13482   0.00000   0.00000
  18        6D 0        0.00000   0.00703   0.00133  -0.00000   0.00000
  19        6D+1       -0.00000   0.00000   0.00000   0.00000   0.00317
  20        6D-1        0.00000  -0.00000  -0.00000   0.00317   0.00000
  21        6D+2        0.00000  -0.00000  -0.00000   0.00016   0.00000
  22        6D-2       -0.00000   0.00000   0.00000   0.00000   0.00016
  23        7D 0        0.00000  -0.02025  -0.03454   0.00000   0.00000
  24        7D+1       -0.00000   0.00000   0.00000   0.00000  -0.01168
  25        7D-1        0.00000   0.00000   0.00000  -0.01168   0.00000
  26        7D+2        0.00000   0.00000   0.00000  -0.01419   0.00000
  27        7D-2       -0.00000   0.00000   0.00000   0.00000  -0.01419
  28 2   F  1S          0.00000   0.01395   0.00932   0.01253   0.00000
  29        2S          0.00000   0.02338   0.01584   0.02170   0.00000
  30        2PX         0.19347   0.00000   0.00000   0.00000  -0.03792
  31        2PY         0.00000   0.02479  -0.00397  -0.02204   0.00000
  32        2PZ         0.00000  -0.09410   0.05239  -0.00804   0.00000
  33        3S          0.00000  -0.08012  -0.05963  -0.09153   0.00000
  34        3PX         0.27784   0.00000   0.00000   0.00000  -0.06518
  35        3PY         0.00000   0.03822  -0.01048  -0.03599   0.00000
  36        3PZ         0.00000  -0.13587   0.08130  -0.01795   0.00000
  37        4S          0.00000  -0.12890  -0.04982   0.01389   0.00000
  38        4PX         0.24959   0.00000   0.00000   0.00000  -0.01112
  39        4PY         0.00000   0.06614   0.06613   0.00716   0.00000
  40        4PZ         0.00000  -0.14364   0.03792   0.01043   0.00000
  41        5S          0.00000  -0.28547  -1.14630  -1.18535   0.00000
  42        5PX         0.04385   0.00000   0.00000   0.00000  -0.30169
  43        5PY         0.00000   0.06200   0.26451   0.13572   0.00000
  44        5PZ         0.00000  -0.10123   0.15012  -0.24421   0.00000
  45        6D 0        0.00000   0.00082  -0.00072  -0.00009   0.00000
  46        6D+1        0.00009   0.00000   0.00000   0.00000   0.00021
  47        6D-1        0.00000  -0.00123   0.00007  -0.00045   0.00000
  48        6D+2        0.00000   0.00037  -0.00099  -0.00057   0.00000
  49        6D-2       -0.00062   0.00000   0.00000   0.00000   0.00015
  50        7D 0        0.00000   0.00871   0.00123   0.00088   0.00000
  51        7D+1        0.00289   0.00000   0.00000   0.00000   0.00092
  52        7D-1        0.00000  -0.00378   0.00570   0.00028   0.00000
  53        7D+2        0.00000   0.00595   0.00403   0.00067   0.00000
  54        7D-2       -0.01054   0.00000   0.00000   0.00000   0.00110
  55 3   F  1S          0.00000   0.01395   0.00932  -0.00627   0.01085
  56        2S          0.00000   0.02338   0.01584  -0.01085   0.01879
  57        2PX        -0.09674   0.02147  -0.00344  -0.00688  -0.02601
  58        2PY        -0.16755  -0.01239   0.00199  -0.03395  -0.00688
  59        2PZ        -0.00000  -0.09410   0.05239   0.00402  -0.00697
  60        3S         -0.00000  -0.08012  -0.05963   0.04577  -0.07927
  61        3PX        -0.13892   0.03310  -0.00908  -0.01264  -0.04329
  62        3PY        -0.24062  -0.01911   0.00524  -0.05788  -0.01264
  63        3PZ        -0.00000  -0.13587   0.08130   0.00897  -0.01554
  64        4S          0.00000  -0.12890  -0.04982  -0.00695   0.01203
  65        4PX        -0.12480   0.05728   0.05727  -0.00792   0.00259
  66        4PY        -0.21615  -0.03307  -0.03307  -0.00655  -0.00792
  67        4PZ        -0.00000  -0.14364   0.03792  -0.00522   0.00903
  68        5S         -0.00000  -0.28547  -1.14630   0.59267  -1.02654
  69        5PX        -0.02193   0.05370   0.22907  -0.18940   0.02636
  70        5PY        -0.03798  -0.03100  -0.13226  -0.19234  -0.18940
  71        5PZ        -0.00000  -0.10123   0.15012   0.12210  -0.21149
  72        6D 0        0.00000   0.00082  -0.00072   0.00005  -0.00008
  73        6D+1       -0.00004  -0.00107   0.00006   0.00029  -0.00029
  74        6D-1       -0.00007   0.00062  -0.00003   0.00004   0.00029
  75        6D+2        0.00054  -0.00019   0.00049  -0.00003   0.00031
  76        6D-2        0.00031   0.00032  -0.00086   0.00031  -0.00039
  77        7D 0       -0.00000   0.00871   0.00123  -0.00044   0.00077
  78        7D+1       -0.00144  -0.00327   0.00493   0.00028   0.00044
  79        7D-1       -0.00250   0.00189  -0.00285   0.00076   0.00028
  80        7D+2        0.00913  -0.00297  -0.00201   0.00099   0.00019
  81        7D-2        0.00527   0.00515   0.00349   0.00019   0.00077
  82 4   F  1S         -0.00000   0.01395   0.00932  -0.00627  -0.01085
  83        2S         -0.00000   0.02338   0.01584  -0.01085  -0.01879
  84        2PX        -0.09674  -0.02147   0.00344   0.00688  -0.02601
  85        2PY         0.16755  -0.01239   0.00199  -0.03395   0.00688
  86        2PZ         0.00000  -0.09410   0.05239   0.00402   0.00697
  87        3S          0.00000  -0.08012  -0.05963   0.04577   0.07927
  88        3PX        -0.13892  -0.03310   0.00908   0.01264  -0.04329
  89        3PY         0.24062  -0.01911   0.00524  -0.05788   0.01264
  90        3PZ         0.00000  -0.13587   0.08130   0.00897   0.01554
  91        4S         -0.00000  -0.12890  -0.04982  -0.00695  -0.01203
  92        4PX        -0.12480  -0.05728  -0.05727   0.00792   0.00259
  93        4PY         0.21615  -0.03307  -0.03307  -0.00655   0.00792
  94        4PZ         0.00000  -0.14364   0.03792  -0.00522  -0.00903
  95        5S          0.00000  -0.28547  -1.14630   0.59267   1.02654
  96        5PX        -0.02193  -0.05370  -0.22907   0.18940   0.02636
  97        5PY         0.03798  -0.03100  -0.13226  -0.19234   0.18940
  98        5PZ         0.00000  -0.10123   0.15012   0.12210   0.21149
  99        6D 0       -0.00000   0.00082  -0.00072   0.00005   0.00008
 100        6D+1       -0.00004   0.00107  -0.00006  -0.00029  -0.00029
 101        6D-1        0.00007   0.00062  -0.00003   0.00004  -0.00029
 102        6D+2       -0.00054  -0.00019   0.00049  -0.00003  -0.00031
 103        6D-2        0.00031  -0.00032   0.00086  -0.00031  -0.00039
 104        7D 0        0.00000   0.00871   0.00123  -0.00044  -0.00077
 105        7D+1       -0.00144   0.00327  -0.00493  -0.00028   0.00044
 106        7D-1        0.00250   0.00189  -0.00285   0.00076  -0.00028
 107        7D+2       -0.00913  -0.00297  -0.00201   0.00099  -0.00019
 108        7D-2        0.00527  -0.00515  -0.00349  -0.00019   0.00077
                          21        22        23        24        25
                        (A1)--V   (E)--V    (E)--V    (A1)--V   (E)--V
     Eigenvalues --     0.21503   0.36639   0.36639   0.38745   0.41235
   1 1   C  1S          0.02231   0.00000   0.00000  -0.06213   0.00000
   2        2S          0.03741   0.00000   0.00000  -0.09793   0.00000
   3        2PX         0.00000   0.00000   0.11058   0.00000   0.03356
   4        2PY         0.00000   0.11058   0.00000  -0.00000   0.00000
   5        2PZ        -0.12737  -0.00000   0.00000  -0.09036   0.00000
   6        3S         -0.15495   0.00000   0.00000   0.24931   0.00000
   7        3PX         0.00000   0.00000   0.04239   0.00000   0.08091
   8        3PY        -0.00000   0.04239   0.00000  -0.00000   0.00000
   9        3PZ        -0.12900   0.00000   0.00000  -0.13138   0.00000
  10        4S          0.44458  -0.00000   0.00000   2.13647   0.00000
  11        4PX         0.00000   0.00000   1.71999   0.00000   0.37199
  12        4PY        -0.00000   1.71999   0.00000  -0.00000   0.00000
  13        4PZ        -0.57243   0.00000   0.00000  -0.47645   0.00000
  14        5S          1.10466   0.00000   0.00000  -1.44429   0.00000
  15        5PX         0.00000   0.00000  -0.57188   0.00000   0.38916
  16        5PY        -0.00000  -0.57188   0.00000  -0.00000   0.00000
  17        5PZ         1.10052   0.00000   0.00000   0.11291   0.00000
  18        6D 0        0.00756   0.00000   0.00000   0.00994   0.00000
  19        6D+1        0.00000   0.00000   0.00401   0.00000   0.00648
  20        6D-1       -0.00000   0.00401   0.00000  -0.00000   0.00000
  21        6D+2       -0.00000   0.01203   0.00000  -0.00000   0.00000
  22        6D-2        0.00000   0.00000   0.01203   0.00000   0.00303
  23        7D 0        0.00270   0.00000   0.00000   0.05427   0.00000
  24        7D+1        0.00000   0.00000  -0.06091   0.00000  -0.05619
  25        7D-1        0.00000  -0.06091   0.00000   0.00000   0.00000
  26        7D+2        0.00000  -0.04543   0.00000   0.00000   0.00000
  27        7D-2        0.00000   0.00000  -0.04543   0.00000  -0.00243
  28 2   F  1S          0.00126   0.01939   0.00000   0.02104   0.00000
  29        2S          0.00210   0.03168   0.00000   0.03457   0.00000
  30        2PX         0.00000   0.00000   0.02445   0.00000   0.04611
  31        2PY        -0.01039  -0.01453   0.00000   0.04204   0.00000
  32        2PZ         0.01613   0.00919   0.00000  -0.02392   0.00000
  33        3S         -0.00697  -0.09044   0.00000  -0.10157   0.00000
  34        3PX         0.00000   0.00000   0.02719   0.00000   0.04096
  35        3PY        -0.01708   0.01042   0.00000   0.08553   0.00000
  36        3PZ         0.01179   0.00267   0.00000  -0.02836   0.00000
  37        4S         -0.02246  -0.47585   0.00000  -0.41440   0.00000
  38        4PX         0.00000   0.00000   0.07327   0.00000   0.19659
  39        4PY         0.00864  -0.09080   0.00000  -0.00945   0.00000
  40        4PZ         0.07595   0.04687   0.00000  -0.07487   0.00000
  41        5S         -0.38382  -1.41166   0.00000   0.48781   0.00000
  42        5PX         0.00000   0.00000  -0.31959   0.00000  -0.68005
  43        5PY         0.17319   1.83717   0.00000   0.78857   0.00000
  44        5PZ        -0.16308  -0.69200   0.00000   0.10303   0.00000
  45        6D 0       -0.00069  -0.00051   0.00000  -0.00170   0.00000
  46        6D+1        0.00000   0.00000   0.00063   0.00000   0.00090
  47        6D-1        0.00131  -0.00118   0.00000  -0.00011   0.00000
  48        6D+2       -0.00061  -0.00155   0.00000  -0.00262   0.00000
  49        6D-2        0.00000   0.00000  -0.00185   0.00000  -0.00146
  50        7D 0       -0.00300  -0.00415   0.00000  -0.01168   0.00000
  51        7D+1        0.00000   0.00000   0.00329   0.00000   0.00950
  52        7D-1        0.00632  -0.01307   0.00000  -0.00119   0.00000
  53        7D+2       -0.00107  -0.01388   0.00000  -0.01312   0.00000
  54        7D-2        0.00000   0.00000  -0.01229   0.00000  -0.00613
  55 3   F  1S          0.00126  -0.00969   0.01679   0.02104   0.00027
  56        2S          0.00210  -0.01584   0.02744   0.03457   0.00037
  57        2PX        -0.00900   0.01688  -0.00479   0.03641   0.01806
  58        2PY         0.00520   0.01470   0.01688  -0.02102   0.01619
  59        2PZ         0.01613  -0.00460   0.00796  -0.02392  -0.07836
  60        3S         -0.00697   0.04522  -0.07833  -0.10157   0.00277
  61        3PX        -0.01479   0.00726   0.01462   0.07408   0.02017
  62        3PY         0.00854   0.02300   0.00726  -0.04277   0.01200
  63        3PZ         0.01179  -0.00133   0.00231  -0.02836  -0.07531
  64        4S         -0.02246   0.23793  -0.41210  -0.41440  -0.06551
  65        4PX         0.00748   0.07104  -0.04978  -0.00818   0.09901
  66        4PY        -0.00432   0.03226   0.07104   0.00472   0.05634
  67        4PZ         0.07595  -0.02344   0.04059  -0.07487  -0.32488
  68        5S         -0.38382   0.70583  -1.22253   0.48781  -0.17567
  69        5PX         0.14999  -0.93390   1.29798   0.68293  -0.20530
  70        5PY        -0.08660   0.21960  -0.93390  -0.39429  -0.27409
  71        5PZ        -0.16308   0.34600  -0.59929   0.10303   0.88305
  72        6D 0       -0.00069   0.00025  -0.00044  -0.00170  -0.00036
  73        6D+1        0.00113   0.00079  -0.00073  -0.00010   0.00098
  74        6D-1       -0.00065   0.00018   0.00079   0.00006  -0.00004
  75        6D+2        0.00031  -0.00178  -0.00013   0.00131  -0.00005
  76        6D-2       -0.00053  -0.00013  -0.00162  -0.00227  -0.00137
  77        7D 0       -0.00300   0.00207  -0.00359  -0.01168   0.00189
  78        7D+1        0.00547   0.00708  -0.00898  -0.00103   0.00857
  79        7D-1       -0.00316  -0.00080   0.00708   0.00060   0.00053
  80        7D+2        0.00054  -0.01269   0.00069   0.00656  -0.00327
  81        7D-2       -0.00093   0.00069  -0.01349  -0.01136  -0.00046
  82 4   F  1S          0.00126  -0.00969  -0.01679   0.02104  -0.00027
  83        2S          0.00210  -0.01584  -0.02744   0.03457  -0.00037
  84        2PX         0.00900  -0.01688  -0.00479  -0.03641   0.01806
  85        2PY         0.00520   0.01470  -0.01688  -0.02102  -0.01619
  86        2PZ         0.01613  -0.00460  -0.00796  -0.02392   0.07836
  87        3S         -0.00697   0.04522   0.07833  -0.10157  -0.00277
  88        3PX         0.01479  -0.00726   0.01462  -0.07408   0.02017
  89        3PY         0.00854   0.02300  -0.00726  -0.04277  -0.01200
  90        3PZ         0.01179  -0.00133  -0.00231  -0.02836   0.07531
  91        4S         -0.02246   0.23793   0.41210  -0.41440   0.06551
  92        4PX        -0.00748  -0.07104  -0.04978   0.00818   0.09901
  93        4PY        -0.00432   0.03226  -0.07104   0.00472  -0.05634
  94        4PZ         0.07595  -0.02344  -0.04059  -0.07487   0.32488
  95        5S         -0.38382   0.70583   1.22253   0.48781   0.17567
  96        5PX        -0.14999   0.93390   1.29798  -0.68293  -0.20530
  97        5PY        -0.08660   0.21960   0.93390  -0.39429   0.27409
  98        5PZ        -0.16308   0.34600   0.59929   0.10303  -0.88305
  99        6D 0       -0.00069   0.00025   0.00044  -0.00170   0.00036
 100        6D+1       -0.00113  -0.00079  -0.00073   0.00010   0.00098
 101        6D-1       -0.00065   0.00018  -0.00079   0.00006   0.00004
 102        6D+2        0.00031  -0.00178   0.00013   0.00131   0.00005
 103        6D-2        0.00053   0.00013  -0.00162   0.00227  -0.00137
 104        7D 0       -0.00300   0.00207   0.00359  -0.01168  -0.00189
 105        7D+1       -0.00547  -0.00708  -0.00898   0.00103   0.00857
 106        7D-1       -0.00316  -0.00080  -0.00708   0.00060  -0.00053
 107        7D+2        0.00054  -0.01269  -0.00069   0.00656   0.00327
 108        7D-2        0.00093  -0.00069  -0.01349   0.01136  -0.00046
                          26        27        28        29        30
                        (E)--V    (A1)--V   (E)--V    (E)--V    (A1)--V
     Eigenvalues --     0.41235   0.43190   0.46518   0.46518   0.47147
   1 1   C  1S         -0.00000   0.03658   0.00000   0.00000  -0.02867
   2        2S         -0.00000   0.06451   0.00000   0.00000  -0.04203
   3        2PX         0.00000   0.00000   0.00000  -0.16377   0.00000
   4        2PY         0.03356   0.00000   0.16377   0.00000  -0.00000
   5        2PZ        -0.00000   0.11107   0.00000   0.00000   0.03793
   6        3S          0.00000  -0.37650  -0.00000   0.00000  -0.03808
   7        3PX         0.00000   0.00000   0.00000  -0.27470   0.00000
   8        3PY         0.08091   0.00000   0.27470   0.00000  -0.00000
   9        3PZ        -0.00000   0.23991   0.00000   0.00000  -0.01114
  10        4S          0.00000   2.30296  -0.00000   0.00000   4.35582
  11        4PX         0.00000   0.00000   0.00000   0.48472   0.00000
  12        4PY         0.37199  -0.00000  -0.48472   0.00000  -0.00000
  13        4PZ        -0.00000  -0.57518   0.00000   0.00000   0.03534
  14        5S         -0.00000   1.73137  -0.00000   0.00000   0.60956
  15        5PX         0.00000   0.00000   0.00000   1.52769   0.00000
  16        5PY         0.38916  -0.00000  -1.52769   0.00000  -0.00000
  17        5PZ         0.00000  -0.90178   0.00000   0.00000   0.98424
  18        6D 0        0.00000  -0.01920  -0.00000   0.00000   0.00026
  19        6D+1        0.00000   0.00000   0.00000  -0.00406   0.00000
  20        6D-1        0.00648   0.00000   0.00406   0.00000  -0.00000
  21        6D+2        0.00303   0.00000   0.01362   0.00000  -0.00000
  22        6D-2        0.00000   0.00000   0.00000  -0.01362   0.00000
  23        7D 0        0.00000  -0.13901   0.00000   0.00000  -0.09552
  24        7D+1        0.00000   0.00000   0.00000  -0.11063   0.00000
  25        7D-1       -0.05619   0.00000   0.11063   0.00000   0.00000
  26        7D+2       -0.00243   0.00000   0.14391   0.00000   0.00000
  27        7D-2        0.00000   0.00000   0.00000  -0.14391   0.00000
  28 2   F  1S          0.00032  -0.02446   0.02916   0.00000  -0.00677
  29        2S          0.00042  -0.04100   0.04846   0.00000  -0.01129
  30        2PX         0.00000   0.00000   0.00000   0.11798   0.00000
  31        2PY         0.00871  -0.09355   0.04401   0.00000   0.01230
  32        2PZ        -0.09048  -0.05771  -0.06544   0.00000   0.03809
  33        3S          0.00320   0.14035  -0.15700   0.00000   0.03924
  34        3PX         0.00000   0.00000   0.00000   0.14025   0.00000
  35        3PY         0.01324  -0.14393   0.08256   0.00000   0.00934
  36        3PZ        -0.08696  -0.06228  -0.07837   0.00000   0.03044
  37        4S         -0.07564   0.32524  -0.40085   0.00000   0.10809
  38        4PX         0.00000   0.00000   0.00000   0.36394   0.00000
  39        4PY         0.06648  -0.08742  -0.08270   0.00000   0.13937
  40        4PZ        -0.37513  -0.21777  -0.17616   0.00000   0.16149
  41        5S         -0.20285  -1.68492   1.59709   0.00000  -1.49191
  42        5PX         0.00000   0.00000   0.00000  -1.02402   0.00000
  43        5PY        -0.04705   0.62855   0.29485   0.00000   0.77836
  44        5PZ         1.01966   0.42097   0.66231   0.00000  -1.12580
  45        6D 0       -0.00041  -0.00007  -0.00050   0.00000  -0.00072
  46        6D+1        0.00000   0.00000   0.00000  -0.00109   0.00000
  47        6D-1        0.00100  -0.00132  -0.00043   0.00000  -0.00301
  48        6D+2       -0.00134  -0.00044   0.00000   0.00000  -0.00290
  49        6D-2        0.00000   0.00000   0.00000   0.00105   0.00000
  50        7D 0        0.00219   0.00274  -0.00349   0.00000   0.00620
  51        7D+1        0.00000   0.00000   0.00000  -0.00529   0.00000
  52        7D-1        0.00826  -0.00363  -0.00763   0.00000  -0.00589
  53        7D+2        0.00143   0.00743  -0.00783   0.00000  -0.00517
  54        7D-2        0.00000   0.00000   0.00000   0.00981   0.00000
  55 3   F  1S         -0.00016  -0.02446  -0.01458  -0.02526  -0.00677
  56        2S         -0.00021  -0.04100  -0.02423  -0.04197  -0.01129
  57        2PX         0.01619  -0.08102  -0.07014  -0.00351   0.01065
  58        2PY         0.03676   0.04677  -0.07748   0.07014  -0.00615
  59        2PZ         0.04524  -0.05771   0.03272   0.05667   0.03809
  60        3S         -0.00160   0.14035   0.07850   0.13597   0.03924
  61        3PX         0.01200  -0.12465  -0.09648  -0.02685   0.00809
  62        3PY         0.03403   0.07197  -0.08455   0.09648  -0.00467
  63        3PZ         0.04348  -0.06228   0.03918   0.06787   0.03044
  64        4S          0.03782   0.32524   0.20043   0.34715   0.10809
  65        4PX         0.05634  -0.07571  -0.12178   0.15301   0.12070
  66        4PY         0.16406   0.04371  -0.29363   0.12178  -0.06969
  67        4PZ         0.18757  -0.21777   0.08808   0.15256   0.16149
  68        5S          0.10142  -1.68492  -0.79855  -1.38312  -1.49191
  69        5PX        -0.27409   0.54434   0.31574  -0.47714   0.67408
  70        5PY        -0.52180  -0.31428   0.84173  -0.31574  -0.38918
  71        5PZ        -0.50983   0.42097  -0.33116  -0.57358  -1.12580
  72        6D 0        0.00021  -0.00007   0.00025   0.00043  -0.00072
  73        6D+1       -0.00004  -0.00114   0.00066   0.00005  -0.00261
  74        6D-1        0.00093   0.00066   0.00071  -0.00066   0.00151
  75        6D+2       -0.00143   0.00022  -0.00078   0.00045   0.00145
  76        6D-2       -0.00005  -0.00038  -0.00045   0.00026  -0.00251
  77        7D 0       -0.00109   0.00274   0.00175   0.00302   0.00620
  78        7D+1        0.00053  -0.00314   0.00559   0.00440  -0.00510
  79        7D-1        0.00919   0.00181   0.00206  -0.00559   0.00295
  80        7D+2       -0.00424  -0.00371  -0.00931   0.00086   0.00259
  81        7D-2       -0.00327   0.00643  -0.00086   0.00833  -0.00448
  82 4   F  1S         -0.00016  -0.02446  -0.01458   0.02526  -0.00677
  83        2S         -0.00021  -0.04100  -0.02423   0.04197  -0.01129
  84        2PX        -0.01619   0.08102   0.07014  -0.00351  -0.01065
  85        2PY         0.03676   0.04677  -0.07748  -0.07014  -0.00615
  86        2PZ         0.04524  -0.05771   0.03272  -0.05667   0.03809
  87        3S         -0.00160   0.14035   0.07850  -0.13597   0.03924
  88        3PX        -0.01200   0.12465   0.09648  -0.02685  -0.00809
  89        3PY         0.03403   0.07197  -0.08455  -0.09648  -0.00467
  90        3PZ         0.04348  -0.06228   0.03918  -0.06787   0.03044
  91        4S          0.03782   0.32524   0.20043  -0.34715   0.10809
  92        4PX        -0.05634   0.07571   0.12178   0.15301  -0.12070
  93        4PY         0.16406   0.04371  -0.29363  -0.12178  -0.06969
  94        4PZ         0.18757  -0.21777   0.08808  -0.15256   0.16149
  95        5S          0.10142  -1.68492  -0.79855   1.38312  -1.49191
  96        5PX         0.27409  -0.54434  -0.31574  -0.47714  -0.67408
  97        5PY        -0.52180  -0.31428   0.84173   0.31574  -0.38918
  98        5PZ        -0.50983   0.42097  -0.33116   0.57358  -1.12580
  99        6D 0        0.00021  -0.00007   0.00025  -0.00043  -0.00072
 100        6D+1        0.00004   0.00114  -0.00066   0.00005   0.00261
 101        6D-1        0.00093   0.00066   0.00071   0.00066   0.00151
 102        6D+2       -0.00143   0.00022  -0.00078  -0.00045   0.00145
 103        6D-2        0.00005   0.00038   0.00045   0.00026   0.00251
 104        7D 0       -0.00109   0.00274   0.00175  -0.00302   0.00620
 105        7D+1       -0.00053   0.00314  -0.00559   0.00440   0.00510
 106        7D-1        0.00919   0.00181   0.00206   0.00559   0.00295
 107        7D+2       -0.00424  -0.00371  -0.00931  -0.00086   0.00259
 108        7D-2        0.00327  -0.00643   0.00086   0.00833   0.00448
                          31        32        33        34        35
                        (A2)--V   (E)--V    (E)--V    (A1)--V   (E)--V
     Eigenvalues --     0.48435   0.50158   0.50158   0.50648   0.58248
   1 1   C  1S          0.00000   0.00000   0.00000  -0.07075   0.00000
   2        2S          0.00000   0.00000   0.00000  -0.11951   0.00000
   3        2PX        -0.00000   0.00000   0.21264   0.00000   0.00000
   4        2PY         0.00000   0.21264   0.00000   0.00000  -0.11632
   5        2PZ         0.00000   0.00000   0.00000  -0.12970   0.00000
   6        3S          0.00000  -0.00000   0.00000   0.31628  -0.00000
   7        3PX        -0.00000   0.00000   0.41016   0.00000   0.00000
   8        3PY         0.00000   0.41016   0.00000   0.00000  -0.16995
   9        3PZ         0.00000   0.00000   0.00000  -0.27492   0.00000
  10        4S          0.00000  -0.00000   0.00000   3.35127   0.00000
  11        4PX        -0.00000   0.00000   1.61161   0.00000   0.00000
  12        4PY         0.00000   1.61161   0.00000   0.00000  -3.21396
  13        4PZ         0.00000   0.00000   0.00000  -1.21521  -0.00000
  14        5S          0.00000  -0.00000   0.00000   2.50727  -0.00000
  15        5PX        -0.00000   0.00000   1.12758   0.00000   0.00000
  16        5PY         0.00000   1.12758   0.00000   0.00000  -0.16536
  17        5PZ         0.00000   0.00000   0.00000  -0.99183  -0.00000
  18        6D 0        0.00000  -0.00000   0.00000   0.02033  -0.00000
  19        6D+1       -0.00000   0.00000   0.00894   0.00000   0.00000
  20        6D-1        0.00000   0.00894   0.00000   0.00000  -0.00630
  21        6D+2        0.00000   0.01994   0.00000   0.00000  -0.01340
  22        6D-2       -0.00000   0.00000   0.01994   0.00000   0.00000
  23        7D 0        0.00000   0.00000   0.00000   0.00424  -0.00000
  24        7D+1        0.00000   0.00000  -0.05394   0.00000   0.00000
  25        7D-1        0.00000  -0.05394   0.00000  -0.00000   0.11672
  26        7D+2        0.00000  -0.04232   0.00000  -0.00000   0.11108
  27        7D-2        0.00000   0.00000  -0.04232   0.00000   0.00000
  28 2   F  1S          0.00000   0.01335   0.00000   0.00227   0.01407
  29        2S          0.00000   0.02157   0.00000   0.00418   0.02158
  30        2PX        -0.05888   0.00000  -0.03265   0.00000   0.00000
  31        2PY         0.00000   0.13414   0.00000   0.12682  -0.05522
  32        2PZ         0.00000  -0.01912   0.00000  -0.02926   0.03302
  33        3S          0.00000  -0.04775   0.00000  -0.01801  -0.02876
  34        3PX        -0.04571   0.00000  -0.05222   0.00000   0.00000
  35        3PY         0.00000   0.15925   0.00000   0.14847  -0.06416
  36        3PZ         0.00000  -0.04199   0.00000  -0.02991   0.03640
  37        4S          0.00000  -0.52790   0.00000   0.03378  -0.68374
  38        4PX        -0.31016   0.00000  -0.03761   0.00000   0.00000
  39        4PY         0.00000   0.61077   0.00000   0.55017  -0.33551
  40        4PZ         0.00000  -0.00666   0.00000  -0.14940   0.17602
  41        5S          0.00000  -0.50395   0.00000  -2.44784   7.08230
  42        5PX         1.46535   0.00000  -1.00319   0.00000   0.00000
  43        5PY         0.00000  -1.24714   0.00000   0.03529  -3.15046
  44        5PZ         0.00000  -0.74767   0.00000   0.46225   0.58429
  45        6D 0        0.00000   0.00029   0.00000  -0.00280   0.00355
  46        6D+1       -0.00001   0.00000   0.00066   0.00000   0.00000
  47        6D-1        0.00000  -0.00357   0.00000  -0.00026   0.00297
  48        6D+2        0.00000  -0.00233   0.00000  -0.00450   0.00509
  49        6D-2        0.00235   0.00000  -0.00509   0.00000   0.00000
  50        7D 0        0.00000   0.01197   0.00000   0.00346   0.00619
  51        7D+1       -0.00115   0.00000   0.01511   0.00000   0.00000
  52        7D-1        0.00000  -0.01114   0.00000   0.01054   0.00802
  53        7D+2        0.00000   0.01139   0.00000  -0.00599  -0.00172
  54        7D-2        0.00943   0.00000  -0.01781   0.00000   0.00000
  55 3   F  1S         -0.00000  -0.00668   0.01156   0.00227  -0.00703
  56        2S         -0.00000  -0.01078   0.01868   0.00418  -0.01079
  57        2PX         0.02944  -0.07222   0.09244   0.10983   0.03766
  58        2PY         0.05099   0.00905  -0.07222  -0.06341   0.01001
  59        2PZ         0.00000   0.00956  -0.01655  -0.02926  -0.01651
  60        3S          0.00000   0.02387  -0.04135  -0.01801   0.01438
  61        3PX         0.02285  -0.09157   0.10638   0.12858   0.03419
  62        3PY         0.03958   0.00065  -0.09157  -0.07423  -0.00495
  63        3PZ         0.00000   0.02099  -0.03636  -0.02991  -0.01820
  64        4S          0.00000   0.26395  -0.45717   0.03378   0.34187
  65        4PX         0.15508  -0.28076   0.44867   0.47646   0.25511
  66        4PY         0.26860   0.12448  -0.28076  -0.27509   0.10635
  67        4PZ         0.00000   0.00333  -0.00577  -0.14940  -0.08801
  68        5S          0.00000   0.25197  -0.43643  -2.44784  -3.54115
  69        5PX        -0.73267   0.10563  -1.18615   0.03056   1.07463
  70        5PY        -1.26903  -1.06418   0.10563  -0.01764  -1.28915
  71        5PZ         0.00000   0.37383  -0.64750   0.46225  -0.29215
  72        6D 0       -0.00000  -0.00015   0.00025  -0.00280  -0.00177
  73        6D+1        0.00001   0.00183  -0.00251  -0.00022  -0.00184
  74        6D-1        0.00001  -0.00040   0.00183   0.00013  -0.00022
  75        6D+2       -0.00204  -0.00440  -0.00119   0.00225   0.00180
  76        6D-2       -0.00118  -0.00119  -0.00302  -0.00389  -0.00190
  77        7D 0       -0.00000  -0.00599   0.01037   0.00346  -0.00310
  78        7D+1        0.00057   0.01137  -0.00458   0.00912  -0.01141
  79        7D-1        0.00099   0.00855   0.01137  -0.00527  -0.01174
  80        7D+2       -0.00817  -0.01051  -0.01265   0.00300  -0.00579
  81        7D-2       -0.00472  -0.01265   0.00409  -0.00519  -0.00235
  82 4   F  1S          0.00000  -0.00668  -0.01156   0.00227  -0.00703
  83        2S          0.00000  -0.01078  -0.01868   0.00418  -0.01079
  84        2PX         0.02944   0.07222   0.09244  -0.10983  -0.03766
  85        2PY        -0.05099   0.00905   0.07222  -0.06341   0.01001
  86        2PZ        -0.00000   0.00956   0.01655  -0.02926  -0.01651
  87        3S         -0.00000   0.02387   0.04135  -0.01801   0.01438
  88        3PX         0.02285   0.09157   0.10638  -0.12858  -0.03419
  89        3PY        -0.03958   0.00065   0.09157  -0.07423  -0.00495
  90        3PZ        -0.00000   0.02099   0.03636  -0.02991  -0.01820
  91        4S         -0.00000   0.26395   0.45717   0.03378   0.34187
  92        4PX         0.15508   0.28076   0.44867  -0.47646  -0.25511
  93        4PY        -0.26860   0.12448   0.28076  -0.27509   0.10635
  94        4PZ        -0.00000   0.00333   0.00577  -0.14940  -0.08801
  95        5S         -0.00000   0.25197   0.43643  -2.44784  -3.54115
  96        5PX        -0.73267  -0.10563  -1.18615  -0.03056  -1.07463
  97        5PY         1.26903  -1.06418  -0.10563  -0.01764  -1.28915
  98        5PZ        -0.00000   0.37383   0.64750   0.46225  -0.29215
  99        6D 0        0.00000  -0.00015  -0.00025  -0.00280  -0.00177
 100        6D+1        0.00001  -0.00183  -0.00251   0.00022   0.00184
 101        6D-1       -0.00001  -0.00040  -0.00183   0.00013  -0.00022
 102        6D+2        0.00204  -0.00440   0.00119   0.00225   0.00180
 103        6D-2       -0.00118   0.00119  -0.00302   0.00389   0.00190
 104        7D 0        0.00000  -0.00599  -0.01037   0.00346  -0.00310
 105        7D+1        0.00057  -0.01137  -0.00458  -0.00912   0.01141
 106        7D-1       -0.00099   0.00855  -0.01137  -0.00527  -0.01174
 107        7D+2        0.00817  -0.01051   0.01265   0.00300  -0.00579
 108        7D-2       -0.00472   0.01265   0.00409   0.00519   0.00235
                          36        37        38        39        40
                        (E)--V    (A1)--V   (E)--V    (E)--V    (A1)--V
     Eigenvalues --     0.58248   0.78407   0.83018   0.83018   1.00441
   1 1   C  1S          0.00000   0.02758  -0.00000   0.00000   0.08724
   2        2S          0.00000   0.04758  -0.00000   0.00000   0.17373
   3        2PX        -0.11632   0.00000   0.00000  -0.27309   0.00000
   4        2PY         0.00000  -0.00000  -0.27309   0.00000  -0.00000
   5        2PZ         0.00000  -0.21330   0.00000   0.00000   0.09927
   6        3S          0.00000  -0.08344   0.00000   0.00000  -1.60463
   7        3PX        -0.16995   0.00000   0.00000  -0.69346   0.00000
   8        3PY         0.00000  -0.00000  -0.69346   0.00000  -0.00000
   9        3PZ         0.00000  -0.84492   0.00000   0.00000   0.09198
  10        4S          0.00000  -1.54940  -0.00000   0.00000   5.90862
  11        4PX        -3.21396   0.00000   0.00000   6.26169   0.00000
  12        4PY         0.00000   0.00000   6.26169   0.00000   0.00000
  13        4PZ         0.00000   2.71388   0.00000   0.00000  -1.41283
  14        5S          0.00000  -1.09389   0.00000   0.00000   0.45790
  15        5PX        -0.16536   0.00000   0.00000   0.01602   0.00000
  16        5PY         0.00000  -0.00000   0.01602   0.00000  -0.00000
  17        5PZ         0.00000  -0.04584   0.00000   0.00000  -0.19721
  18        6D 0        0.00000   0.01571  -0.00000   0.00000   0.00102
  19        6D+1       -0.00630   0.00000   0.00000   0.02951   0.00000
  20        6D-1        0.00000   0.00000   0.02951   0.00000   0.00000
[...]
    94. (0.00000) RY*(11) F   4           s(  4.97%)p15.20( 75.61%)d 3.90( 19.41%)
    95. (0.00000) RY*(12) F   4           s(  0.02%)p99.99( 99.53%)d18.14(  0.45%)
    96. (0.00000) RY*(13) F   4           s(  5.86%)p13.68( 80.11%)d 2.40( 14.04%)
    97. (0.00000) RY*(14) F   4           s(  0.09%)p23.66(  2.12%)d99.99( 97.79%)
    98. (0.00000) RY*(15) F   4           s(  2.59%)p12.05( 31.21%)d25.56( 66.20%)
    99. (0.00000) RY*(16) F   4           s(  0.01%)p 1.00(  1.90%)d51.57( 98.09%)
   100. (0.00000) RY*(17) F   4           s(  8.80%)p 8.18( 71.95%)d 2.19( 19.26%)
   101. (0.00000) RY*(18) F   4           s(  0.02%)p56.37(  0.86%)d99.99( 99.12%)
   102. (0.00000) RY*(19) F   4           s( 99.99%)p 0.00(  0.00%)d 0.00(  0.00%)
   103. (0.00000) RY*(20) F   4           s(  0.12%)p18.00(  2.16%)d99.99( 97.72%)
   104. (0.00000) RY*(21) F   4           s(  2.24%)p35.26( 78.93%)d 8.41( 18.83%)
   105. (0.00000) RY*(22) F   4           s(  0.35%)p 4.17(  1.46%)d99.99( 98.19%)
   106. (0.07521) BD*( 1) C   1 - F   2  
                ( 76.03%)   0.8719* C   1 s( 20.18%)p 3.94( 79.44%)d 0.02(  0.38%)
                                            0.0000 -0.3788  0.2415 -0.0007  0.0013
                                           -0.0000 -0.0000  0.0000  0.0000 -0.8107
                                           -0.0755  0.0076  0.0068  0.3621  0.0105
                                           -0.0085 -0.0070  0.0000  0.0000  0.0000
                                            0.0000  0.0435  0.0030  0.0376  0.0178
                                            0.0067  0.0108
                ( 23.97%)  -0.4896* F   2 s( 31.72%)p 2.15( 68.07%)d 0.01(  0.20%)
                                           -0.0000 -0.5620 -0.0327  0.0177  0.0000
                                            0.0000  0.0000  0.0000  0.0000  0.7991
                                           -0.0079  0.0005 -0.0052 -0.2051 -0.0040
                                           -0.0028  0.0016  0.0000  0.0000  0.0000
                                            0.0000  0.0155  0.0014  0.0370  0.0016
                                            0.0204  0.0007
   107. (0.07521) BD*( 1) C   1 - F   3  
                ( 76.03%)   0.8719* C   1 s( 20.18%)p 3.94( 79.44%)d 0.02(  0.38%)
                                           -0.0000  0.3788 -0.2415  0.0007 -0.0013
                                            0.7021  0.0654 -0.0066 -0.0059 -0.4053
                                           -0.0378  0.0038  0.0034 -0.3621 -0.0105
                                            0.0085  0.0070 -0.0325 -0.0154 -0.0377
                                           -0.0026  0.0218  0.0015  0.0188  0.0089
                                           -0.0067 -0.0108
                ( 23.97%)  -0.4896* F   3 s( 31.72%)p 2.15( 68.07%)d 0.01(  0.20%)
                                            0.0000  0.5620  0.0327 -0.0177 -0.0000
                                           -0.6920  0.0068 -0.0004  0.0045  0.3995
                                           -0.0039  0.0002 -0.0026  0.2051  0.0040
                                            0.0028 -0.0016 -0.0320 -0.0014 -0.0134
                                           -0.0012  0.0077  0.0007  0.0185  0.0008
                                           -0.0204 -0.0007
   108. (0.07521) BD*( 1) C   1 - F   4  
                ( 76.03%)   0.8719* C   1 s( 20.18%)p 3.94( 79.44%)d 0.02(  0.38%)
                                           -0.0000  0.3788 -0.2415  0.0007 -0.0013
                                           -0.7021 -0.0654  0.0066  0.0059 -0.4053
                                           -0.0378  0.0038  0.0034 -0.3621 -0.0105
                                            0.0085  0.0070  0.0325  0.0154  0.0377
                                            0.0026  0.0218  0.0015  0.0188  0.0089
                                           -0.0067 -0.0108
                ( 23.97%)  -0.4896* F   4 s( 31.72%)p 2.15( 68.07%)d 0.01(  0.20%)
                                            0.0000  0.5620  0.0327 -0.0177 -0.0000
                                            0.6920 -0.0068  0.0004 -0.0045  0.3995
                                           -0.0039  0.0002 -0.0026  0.2051  0.0040
                                            0.0028 -0.0016  0.0320  0.0014  0.0134
                                            0.0012  0.0077  0.0007  0.0185  0.0008
                                           -0.0204 -0.0007


 NHO Directionality and "Bond Bending" (deviations from line of nuclear centers)

         [Thresholds for printing:  angular deviation  >  1.0 degree]
                                    hybrid p-character > 25.0%
                                    orbital occupancy  >  0.10e

                                Line of Centers        Hybrid 1              Hybrid 2
                                ---------------  -------------------   ------------------
                NBO               Theta   Phi    Theta   Phi    Dev    Theta   Phi    Dev
 ========================================================================================
     1. BD (   1) C   1 - F   2   107.5   90.0   112.3   90.0   4.7     75.0  270.0   2.6
     2. BD (   1) C   1 - F   3   107.5  330.0   112.3  330.0   4.7     75.0  150.0   2.6
     3. BD (   1) C   1 - F   4   107.5  210.0   112.3  210.0   4.7     75.0   30.0   2.6
     8. LP (   1) C   1             --     --      0.0    0.0   --       --     --    --
     9. LP (   1) F   2             --     --     98.1   90.0   --       --     --    --
    10. LP (   2) F   2             --     --    168.0  270.0   --       --     --    --
    11. LP (   3) F   2             --     --     90.0    0.0   --       --     --    --
    12. LP (   1) F   3             --     --     98.1  330.0   --       --     --    --
    13. LP (   2) F   3             --     --    168.0  150.0   --       --     --    --
    14. LP (   3) F   3             --     --     90.0   60.0   --       --     --    --
    15. LP (   1) F   4             --     --     98.1  210.0   --       --     --    --
    16. LP (   2) F   4             --     --    168.0   30.0   --       --     --    --
    17. LP (   3) F   4             --     --     90.0  120.0   --       --     --    --


 Second Order Perturbation Theory Analysis of Fock Matrix in NBO Basis

     Threshold for printing:   0.50 kcal/mol
                                                                              E(2)  E(j)-E(i) F(i,j)
         Donor NBO (i)                     Acceptor NBO (j)                 kcal/mol   a.u.    a.u. 
 ===================================================================================================

 within unit  1
   5. CR (   1) F   2                / 20. RY*(   3) C   1                    2.14   26.06    0.211
   6. CR (   1) F   3                / 19. RY*(   2) C   1                    1.60   26.06    0.183
   6. CR (   1) F   3                / 20. RY*(   3) C   1                    0.53   26.06    0.106
   7. CR (   1) F   4                / 19. RY*(   2) C   1                    1.60   26.06    0.183
   7. CR (   1) F   4                / 20. RY*(   3) C   1                    0.53   26.06    0.106
   8. LP (   1) C   1                / 18. RY*(   1) C   1                    2.31    0.49    0.030
   8. LP (   1) C   1                / 40. RY*(   1) F   2                    3.54    1.42    0.063
   8. LP (   1) C   1                / 62. RY*(   1) F   3                    3.54    1.42    0.063
   8. LP (   1) C   1                / 84. RY*(   1) F   4                    3.54    1.42    0.063
   9. LP (   1) F   2                / 18. RY*(   1) C   1                    1.67    1.28    0.042
   9. LP (   1) F   2                / 20. RY*(   3) C   1                    7.10    2.64    0.122
   9. LP (   1) F   2                / 21. RY*(   4) C   1                    1.56    2.22    0.053
   9. LP (   1) F   2                / 34. RY*(  17) C   1                    0.66    2.96    0.040
  10. LP (   2) F   2                / 18. RY*(   1) C   1                    6.55    0.68    0.060
  10. LP (   2) F   2                / 24. RY*(   7) C   1                    0.72    2.75    0.040
  10. LP (   2) F   2                /107. BD*(   1) C   1 - F   3            4.61    0.73    0.052
  10. LP (   2) F   2                /108. BD*(   1) C   1 - F   4            4.61    0.73    0.052
  11. LP (   3) F   2                / 19. RY*(   2) C   1                    1.22    2.04    0.045
  11. LP (   3) F   2                / 22. RY*(   5) C   1                    0.92    3.05    0.048
  11. LP (   3) F   2                /107. BD*(   1) C   1 - F   3           11.12    0.73    0.081
  11. LP (   3) F   2                /108. BD*(   1) C   1 - F   4           11.12    0.73    0.081
  12. LP (   1) F   3                / 18. RY*(   1) C   1                    1.67    1.28    0.042
  12. LP (   1) F   3                / 19. RY*(   2) C   1                    5.33    2.64    0.106
  12. LP (   1) F   3                / 20. RY*(   3) C   1                    1.78    2.64    0.061
  12. LP (   1) F   3                / 21. RY*(   4) C   1                    1.56    2.22    0.053
  13. LP (   2) F   3                / 18. RY*(   1) C   1                    6.55    0.68    0.060
  13. LP (   2) F   3                / 25. RY*(   8) C   1                    0.54    2.75    0.035
  13. LP (   2) F   3                /106. BD*(   1) C   1 - F   2            4.61    0.73    0.052
  13. LP (   2) F   3                /108. BD*(   1) C   1 - F   4            4.61    0.73    0.052
  14. LP (   3) F   3                / 20. RY*(   3) C   1                    0.91    2.04    0.039
  14. LP (   3) F   3                / 23. RY*(   6) C   1                    0.69    3.05    0.041
  14. LP (   3) F   3                /106. BD*(   1) C   1 - F   2           11.12    0.73    0.081
  14. LP (   3) F   3                /108. BD*(   1) C   1 - F   4           11.12    0.73    0.081
  15. LP (   1) F   4                / 18. RY*(   1) C   1                    1.67    1.28    0.042
  15. LP (   1) F   4                / 19. RY*(   2) C   1                    5.33    2.64    0.106
  15. LP (   1) F   4                / 20. RY*(   3) C   1                    1.78    2.64    0.061
  15. LP (   1) F   4                / 21. RY*(   4) C   1                    1.56    2.22    0.053
  16. LP (   2) F   4                / 18. RY*(   1) C   1                    6.55    0.68    0.060
  16. LP (   2) F   4                / 25. RY*(   8) C   1                    0.54    2.75    0.035
  16. LP (   2) F   4                /106. BD*(   1) C   1 - F   2            4.61    0.73    0.052
  16. LP (   2) F   4                /107. BD*(   1) C   1 - F   3            4.61    0.73    0.052
  17. LP (   3) F   4                / 20. RY*(   3) C   1                    0.91    2.04    0.039
  17. LP (   3) F   4                / 23. RY*(   6) C   1                    0.69    3.05    0.041
  17. LP (   3) F   4                /106. BD*(   1) C   1 - F   2           11.12    0.73    0.081
  17. LP (   3) F   4                /107. BD*(   1) C   1 - F   3           11.12    0.73    0.081


 Natural Bond Orbitals (Summary):

                                                            Principal Delocalizations
           NBO                        Occupancy    Energy   (geminal,vicinal,remote)
 ====================================================================================
 Molecular unit  1  (CF3)
     1. BD (   1) C   1 - F   2          1.99793    -0.82399   
     2. BD (   1) C   1 - F   3          1.99793    -0.82399   
     3. BD (   1) C   1 - F   4          1.99793    -0.82399   
     4. CR (   1) C   1                  1.99989   -10.04002   
     5. CR (   1) F   2                  1.99991   -24.23853  20(v)
     6. CR (   1) F   3                  1.99991   -24.23853  19(v),20(v)
     7. CR (   1) F   4                  1.99991   -24.23853  19(v),20(v)
     8. LP (   1) C   1                  1.98469    -0.03700  40(v),62(v),84(v),18(g)
     9. LP (   1) F   2                  1.99218    -0.82659  20(v),18(v),21(v),34(v)
    10. LP (   2) F   2                  1.95255    -0.22487  18(v),107(v),108(v),24(v)
    11. LP (   3) F   2                  1.94922    -0.22254  107(v),108(v),19(v),22(v)
    12. LP (   1) F   3                  1.99218    -0.82659  19(v),20(v),18(v),21(v)
    13. LP (   2) F   3                  1.95255    -0.22487  18(v),106(v),108(v),25(v)
    14. LP (   3) F   3                  1.94922    -0.22254  106(v),108(v),20(v),23(v)
    15. LP (   1) F   4                  1.99218    -0.82659  19(v),20(v),18(v),21(v)
    16. LP (   2) F   4                  1.95255    -0.22487  18(v),106(v),107(v),25(v)
    17. LP (   3) F   4                  1.94922    -0.22254  106(v),107(v),20(v),23(v)
    18. RY*(   1) C   1                  0.06564     0.45193   
    19. RY*(   2) C   1                  0.00889     1.81731   
    20. RY*(   3) C   1                  0.00889     1.81731   
    21. RY*(   4) C   1                  0.00320     1.39537   
    22. RY*(   5) C   1                  0.00216     2.82785   
    23. RY*(   6) C   1                  0.00216     2.82785   
    24. RY*(   7) C   1                  0.00121     2.52241   
    25. RY*(   8) C   1                  0.00121     2.52241   
    26. RY*(   9) C   1                  0.00002     2.42809   
    27. RY*(  10) C   1                  0.00000     1.08796   
    28. RY*(  11) C   1                  0.00000     2.13339   
    29. RY*(  12) C   1                  0.00000     0.61382   
    30. RY*(  13) C   1                  0.00001     1.25757   
    31. RY*(  14) C   1                  0.00000     2.29450   
    32. RY*(  15) C   1                  0.00000    23.22617   
    33. RY*(  16) C   1                  0.00000     2.56366   
    34. RY*(  17) C   1                  0.00000     2.13318   
    35. RY*(  18) C   1                  0.00000     2.56715   
    36. RY*(  19) C   1                  0.00001     1.25724   
    37. RY*(  20) C   1                  0.00000     2.29156   
    38. RY*(  21) C   1                  0.00000     2.53857   
    39. RY*(  22) C   1                  0.00000     2.20219   
    40. RY*(   1) F   2                  0.00581     1.37954   
    41. RY*(   2) F   2                  0.00042     0.87762   
    42. RY*(   3) F   2                  0.00037     0.98197   
    43. RY*(   4) F   2                  0.00016     4.01595   
    44. RY*(   5) F   2                  0.00010     1.63950   
    45. RY*(   6) F   2                  0.00006     2.67058   
    46. RY*(   7) F   2                  0.00002     2.49469   
    47. RY*(   8) F   2                  0.00003     2.29101   
    48. RY*(   9) F   2                  0.00000     3.42972   
    49. RY*(  10) F   2                  0.00000     1.71901   
    50. RY*(  11) F   2                  0.00000     3.66997   
    51. RY*(  12) F   2                  0.00000     6.45760   
    52. RY*(  13) F   2                  0.00000    66.54614   
    53. RY*(  14) F   2                  0.00000     8.98588   
    54. RY*(  15) F   2                  0.00000     1.67253   
    55. RY*(  16) F   2                  0.00000     9.01419   
    56. RY*(  17) F   2                  0.00000     6.44368   
    57. RY*(  18) F   2                  0.00000     8.95592   
    58. RY*(  19) F   2                  0.00000     2.46720   
    59. RY*(  20) F   2                  0.00000     9.21024   
    60. RY*(  21) F   2                  0.00000     1.73977   
    61. RY*(  22) F   2                  0.00000     8.93333   
    62. RY*(   1) F   3                  0.00581     1.37954   
    63. RY*(   2) F   3                  0.00042     0.87762   
    64. RY*(   3) F   3                  0.00037     0.98197   
    65. RY*(   4) F   3                  0.00016     4.01595   
    66. RY*(   5) F   3                  0.00010     1.63950   
    67. RY*(   6) F   3                  0.00006     2.67058   
    68. RY*(   7) F   3                  0.00002     2.49441   
    69. RY*(   8) F   3                  0.00003     2.29130   
    70. RY*(   9) F   3                  0.00000     6.44177   
    71. RY*(  10) F   3                  0.00000     1.89653   
    72. RY*(  11) F   3                  0.00000     1.78453   
    73. RY*(  12) F   3                  0.00000     6.45836   
    74. RY*(  13) F   3                  0.00000     1.96017   
    75. RY*(  14) F   3                  0.00000     9.04637   
    76. RY*(  15) F   3                  0.00000     2.69839   
    77. RY*(  16) F   3                  0.00000     8.89898   
    78. RY*(  17) F   3                  0.00000     4.91530   
    79. RY*(  18) F   3                  0.00000     8.93761   
    80. RY*(  19) F   3                  0.00000    66.54618   
    81. RY*(  20) F   3                  0.00000     9.00854   
    82. RY*(  21) F   3                  0.00000     1.74515   
    83. RY*(  22) F   3                  0.00000     8.90731   
    84. RY*(   1) F   4                  0.00581     1.37954   
    85. RY*(   2) F   4                  0.00042     0.87762   
    86. RY*(   3) F   4                  0.00037     0.98197   
    87. RY*(   4) F   4                  0.00016     4.01595   
    88. RY*(   5) F   4                  0.00010     1.63950   
    89. RY*(   6) F   4                  0.00006     2.67058   
    90. RY*(   7) F   4                  0.00002     2.49441   
    91. RY*(   8) F   4                  0.00003     2.29130   
    92. RY*(   9) F   4                  0.00000     6.44177   
    93. RY*(  10) F   4                  0.00000     1.89653   
    94. RY*(  11) F   4                  0.00000     1.78453   
    95. RY*(  12) F   4                  0.00000     6.45836   
    96. RY*(  13) F   4                  0.00000     1.96017   
    97. RY*(  14) F   4                  0.00000     9.04637   
    98. RY*(  15) F   4                  0.00000     2.69839   
    99. RY*(  16) F   4                  0.00000     8.89898   
   100. RY*(  17) F   4                  0.00000     4.91530   
   101. RY*(  18) F   4                  0.00000     8.93761   
   102. RY*(  19) F   4                  0.00000    66.54618   
   103. RY*(  20) F   4                  0.00000     9.00854   
   104. RY*(  21) F   4                  0.00000     1.74515   
   105. RY*(  22) F   4                  0.00000     8.90731   
   106. BD*(   1) C   1 - F   2          0.07521     0.50930   
   107. BD*(   1) C   1 - F   3          0.07521     0.50930   
   108. BD*(   1) C   1 - F   4          0.07521     0.50930   
       -------------------------------
              Total Lewis   33.65997  ( 98.9999%)
        Valence non-Lewis    0.22563  (  0.6636%)
        Rydberg non-Lewis    0.11440  (  0.3365%)
       -------------------------------
            Total unit  1   34.00000  (100.0000%)
           Charge unit  1   -1.00000
 Leave Link  607 at Wed Sep  5 16:47:11 2018, MaxMem=   805306368 cpu:               6.5 elap:               0.8
 (Enter /home/g16/l9999.exe)
 1\1\GINC-PC13\Stability\RB3LYP\6-311+G(2d,p)\C1F3(1-)\MASKER\05-Sep-20
 18\0\\#p b3lyp/6-311+g(2d,p) pop=(full,nboread) stable=opt g09def\\CF3
 -c1-1sp- 1\\-1,1\C,0,0.,0.,0.325941\F,0,0.,1.260582,-0.072431\F,0,1.09
 1696,-0.630291,-0.072431\F,0,-1.091696,-0.630291,-0.072431\\Version=ES
 64L-G16RevA.03\State=1-A1\HF=-337.6989889\RMSD=7.955e-09\Dipole=0.,0.,
 -0.9072117\Quadrupole=0.5125394,0.5125394,-1.0250788,0.,0.,0.\PG=C03V 
 [C3(C1),3SGV(F1)]\\@


 CURIOUSER AND CURIOUSER

                  -- ALICE, IN WONDERLAND
 Job cpu time:       0 days  0 hours  0 minutes 48.6 seconds.
 Elapsed time:       0 days  0 hours  0 minutes  6.1 seconds.
 File lengths (MBytes):  RWF=    102 Int=      0 D2E=      0 Chk=      3 Scr=      1
 Normal termination of Gaussian 16 at Wed Sep  5 16:47:11 2018.
