 Entering Gaussian System, Link 0=g16
 Input=CF3-c1-1sp.gjf
 Output=CF3-c1-1sp.log
 Initial command:
 /home/g16/l1.exe "/home/masker/scratch/Gau-18733.inp" -scrdir="/home/masker/scratch/"
 Entering Link 1 = /home/g16/l1.exe PID=     18734.
  
 Copyright (c) 1988,1990,1992,1993,1995,1998,2003,2009,2016,
            Gaussian, Inc.  All Rights Reserved.
  
 This is part of the Gaussian(R) 16 program.  It is based on
 the Gaussian(R) 09 system (copyright 2009, Gaussian, Inc.),
 the Gaussian(R) 03 system (copyright 2003, Gaussian, Inc.),
 the Gaussian(R) 98 system (copyright 1998, Gaussian, Inc.),
 the Gaussian(R) 94 system (copyright 1995, Gaussian, Inc.),
 the Gaussian 92(TM) system (copyright 1992, Gaussian, Inc.),
 the Gaussian 90(TM) system (copyright 1990, Gaussian, Inc.),
 the Gaussian 88(TM) system (copyright 1988, Gaussian, Inc.),
 the Gaussian 86(TM) system (copyright 1986, Carnegie Mellon
 University), and the Gaussian 82(TM) system (copyright 1983,
 Carnegie Mellon University). Gaussian is a federally registered
 trademark of Gaussian, Inc.
  
 This software contains proprietary and confidential information,
 including trade secrets, belonging to Gaussian, Inc.
  
 This software is provided under written license and may be
 used, copied, transmitted, or stored only in accord with that
 written license.
  
 The following legend is applicable only to US Government
 contracts under FAR:
  
                    RESTRICTED RIGHTS LEGEND
  
 Use, reproduction and disclosure by the US Government is
 subject to restrictions as set forth in subparagraphs (a)
 and (c) of the Commercial Computer Software - Restricted
 Rights clause in FAR 52.227-19.
  
 Gaussian, Inc.
 340 Quinnipiac St., Bldg. 40, Wallingford CT 06492
  
  
 ---------------------------------------------------------------
 Warning -- This program may not be used in any manner that
 competes with the business of Gaussian, Inc. or will provide
 assistance to any competitor of Gaussian, Inc.  The licensee
 of this program is prohibited from giving any competitor of
 Gaussian, Inc. access to this program.  By using this program,
 the user acknowledges that Gaussian, Inc. is engaged in the
 business of creating and licensing software in the field of
 computational chemistry and represents and warrants to the
 licensee that it is not a competitor of Gaussian, Inc. and that
 it will not use this program in any manner prohibited above.
 ---------------------------------------------------------------
  

 Cite this work as:
 Gaussian 16, Revision A.03,
 M. J. Frisch, G. W. Trucks, H. B. Schlegel, G. E. Scuseria, 
 M. A. Robb, J. R. Cheeseman, G. Scalmani, V. Barone, 
 G. A. Petersson, H. Nakatsuji, X. Li, M. Caricato, A. V. Marenich, 
 J. Bloino, B. G. Janesko, R. Gomperts, B. Mennucci, H. P. Hratchian, 
 J. V. Ortiz, A. F. Izmaylov, J. L. Sonnenberg, D. Williams-Young, 
 F. Ding, F. Lipparini, F. Egidi, J. Goings, B. Peng, A. Petrone, 
 T. Henderson, D. Ranasinghe, V. G. Zakrzewski, J. Gao, N. Rega, 
 G. Zheng, W. Liang, M. Hada, M. Ehara, K. Toyota, R. Fukuda, 
 J. Hasegawa, M. Ishida, T. Nakajima, Y. Honda, O. Kitao, H. Nakai, 
 T. Vreven, K. Throssell, J. A. Montgomery, Jr., J. E. Peralta, 
 F. Ogliaro, M. J. Bearpark, J. J. Heyd, E. N. Brothers, K. N. Kudin, 
 V. N. Staroverov, T. A. Keith, R. Kobayashi, J. Normand, 
 K. Raghavachari, A. P. Rendell, J. C. Burant, S. S. Iyengar, 
 J. Tomasi, M. Cossi, J. M. Millam, M. Klene, C. Adamo, R. Cammi, 
 J. W. Ochterski, R. L. Martin, K. Morokuma, O. Farkas, 
 J. B. Foresman, and D. J. Fox, Gaussian, Inc., Wallingford CT, 2016.
 
 ******************************************
 Gaussian 16:  ES64L-G16RevA.03 25-Dec-2016
                 5-Sep-2018 
 ******************************************
 %nprocshared=8
 Will use up to    8 processors via shared memory.
 %mem=6GB
 %chk=CF3-c1-1sp.chk
 -----------------------------------------------------------
 #p b3lyp/6-311+g(2d,p) pop=(full,nboread) stable=opt g09def
 -----------------------------------------------------------
 1/38=1,158=3,167=1,172=1/1;
 2/12=2,17=6,18=5,40=1/2;
 3/5=4,6=6,7=112,11=2,25=1,27=10,30=1,74=-5,75=-4,158=3/1,2,3;
 4/60=-1/1;
 5/5=2,38=5,87=10/2;
 6/7=3,28=1,40=2,87=10/1,7;
 8/6=1,10=90,11=11,87=10/1;
 9/8=-3,42=1,46=1,87=10/14;
 5/5=2,8=3,17=40,38=5,87=10/8(-2);
 6/7=3,28=1,40=2,87=10/1,7;
 99/5=1,9=1/99;
 Using 2006 physical constants.
 Leave Link    1 at Wed Sep  5 16:40:31 2018, MaxMem=   805306368 cpu:               0.3 elap:               0.0
 (Enter /home/g16/l101.exe)
 ------------
 CF3-c1-1sp 1
 ------------
 Symbolic Z-matrix:
 Charge =  0 Multiplicity = 2
 C                     0.        0.        0.32594 
 F                     0.        1.26058  -0.07243 
 F                     1.0917   -0.63029  -0.07243 
 F                    -1.0917   -0.63029  -0.07243 
 
 ITRead=  0  0  0  0
 MicOpt= -1 -1 -1 -1
 NAtoms=      4 NQM=        4 NQMF=       0 NMMI=      0 NMMIF=      0
                NMic=       0 NMicF=      0.
                    Isotopes and Nuclear Properties:
 (Nuclear quadrupole moments (NQMom) in fm**2, nuclear magnetic moments (NMagM)
  in nuclear magnetons)

  Atom         1           2           3           4
 IAtWgt=          12          19          19          19
 AtmWgt=  12.0000000  18.9984032  18.9984032  18.9984032
 NucSpn=           0           1           1           1
 AtZEff=  -0.0000000  -0.0000000  -0.0000000  -0.0000000
 NQMom=    0.0000000   0.0000000   0.0000000   0.0000000
 NMagM=    0.0000000   2.6288670   2.6288670   2.6288670
 AtZNuc=   6.0000000   9.0000000   9.0000000   9.0000000
 Leave Link  101 at Wed Sep  5 16:40:31 2018, MaxMem=   805306368 cpu:               0.2 elap:               0.0
 (Enter /home/g16/l202.exe)
                          Input orientation:                          
 ---------------------------------------------------------------------
 Center     Atomic      Atomic             Coordinates (Angstroms)
 Number     Number       Type             X           Y           Z
 ---------------------------------------------------------------------
      1          6           0        0.000000    0.000000    0.325941
      2          9           0        0.000000    1.260582   -0.072431
      3          9           0        1.091696   -0.630291   -0.072431
      4          9           0       -1.091696   -0.630291   -0.072431
 ---------------------------------------------------------------------
                    Distance matrix (angstroms):
                    1          2          3          4
     1  C    0.000000
     2  F    1.322031   0.000000
     3  F    1.322031   2.183392   0.000000
     4  F    1.322031   2.183392   2.183392   0.000000
 Stoichiometry    CF3(2)
 Framework group  C3V[C3(C),3SGV(F)]
 Deg. of freedom     2
 Full point group                 C3V     NOp   6
 Largest Abelian subgroup         CS      NOp   2
 Largest concise Abelian subgroup CS      NOp   2
                         Standard orientation:                         
 ---------------------------------------------------------------------
 Center     Atomic      Atomic             Coordinates (Angstroms)
 Number     Number       Type             X           Y           Z
 ---------------------------------------------------------------------
      1          6           0        0.000000    0.000000    0.325941
      2          9           0        0.000000    1.260582   -0.072431
      3          9           0        1.091696   -0.630291   -0.072431
      4          9           0       -1.091696   -0.630291   -0.072431
 ---------------------------------------------------------------------
 Rotational constants (GHZ):          10.7853803          10.7853803           5.5800313
 Leave Link  202 at Wed Sep  5 16:40:31 2018, MaxMem=   805306368 cpu:               0.3 elap:               0.1
 (Enter /home/g16/l301.exe)
 Standard basis: 6-311+G(2d,p) (5D, 7F)
 Ernie: Thresh=  0.10000D-02 Tol=  0.10000D-05 Strict=F.
 There are    71 symmetry adapted cartesian basis functions of A'  symmetry.
 There are    45 symmetry adapted cartesian basis functions of A"  symmetry.
 There are    65 symmetry adapted basis functions of A'  symmetry.
 There are    43 symmetry adapted basis functions of A"  symmetry.
   108 basis functions,   168 primitive gaussians,   116 cartesian basis functions
    17 alpha electrons       16 beta electrons
       nuclear repulsion energy       123.7393067602 Hartrees.
 IExCor=  402 DFT=T Ex+Corr=B3LYP ExCW=0 ScaHFX=  0.200000
 ScaDFX=  0.800000  0.720000  1.000000  0.810000 ScalE2=  1.000000  1.000000
 IRadAn=      4 IRanWt=     -1 IRanGd=            0 ICorTp=0 IEmpDi=  4
 NAtoms=    4 NActive=    4 NUniq=    2 SFac= 4.00D+00 NAtFMM=   60 NAOKFM=F Big=F
 Integral buffers will be    131072 words long.
 Raffenetti 2 integral format.
 Two-electron integral symmetry is turned on.
 Leave Link  301 at Wed Sep  5 16:40:31 2018, MaxMem=   805306368 cpu:               0.1 elap:               0.0
 (Enter /home/g16/l302.exe)
 NPDir=0 NMtPBC=     1 NCelOv=     1 NCel=       1 NClECP=     1 NCelD=      1
         NCelK=      1 NCelE2=     1 NClLst=     1 CellRange=     0.0.
 One-electron integrals computed using PRISM.
 One-electron integral symmetry used in STVInt
 NBasis=   108 RedAO= T EigKep=  1.87D-03  NBF=    65    43
 NBsUse=   108 1.00D-06 EigRej= -1.00D+00 NBFU=    65    43
 Precomputing XC quadrature grid using
 IXCGrd= 4 IRadAn=           4 IRanWt=          -1 IRanGd=           0 AccXCQ= 1.00D-10.
 Generated NRdTot=       0 NPtTot=           0 NUsed=           0 NTot=          32
 NSgBfM=   116   116   116   116   116 MxSgAt=     4 MxSgA2=     4.
 Leave Link  302 at Wed Sep  5 16:40:31 2018, MaxMem=   805306368 cpu:               0.5 elap:               0.1
 (Enter /home/g16/l303.exe)
 DipDrv:  MaxL=1.
 Leave Link  303 at Wed Sep  5 16:40:31 2018, MaxMem=   805306368 cpu:               0.1 elap:               0.0
 (Enter /home/g16/l401.exe)
 ExpMin= 4.38D-02 ExpMax= 1.14D+04 ExpMxC= 1.72D+03 IAcc=2 IRadAn=         4 AccDes= 0.00D+00
 Harris functional with IExCor=  402 and IRadAn=      -1 diagonalized for initial guess.
 HarFok:  IExCor=  402 AccDes= 0.00D+00 IRadAn=        -1 IDoV= 1 UseB2=F ITyADJ=14
 ICtDFT=  3500011 ScaDFX=  1.000000  1.000000  1.000000  1.000000
 FoFCou: FMM=F IPFlag=           0 FMFlag=      100000 FMFlg1=           0
         NFxFlg=           0 DoJE=T BraDBF=F KetDBF=T FulRan=T
         wScrn=  0.000000 ICntrl=       500 IOpCl=  0 I1Cent=   200000004 NGrid=           0
         NMat0=    1 NMatS0=      1 NMatT0=    0 NMatD0=    1 NMtDS0=    0 NMtDT0=    0
 Petite list used in FoFCou.
 Harris En= -337.630522353184    
 JPrj=0 DoOrth=F DoCkMO=F.
 Initial guess orbital symmetries:
 Alpha Orbitals:
       Occupied  (A1) (E) (E) (A1) (A1) (E) (E) (A1) (E) (E) (A1)
                 (E) (E) (E) (E) (A2) (A1)
       Virtual   (A1) (E) (E) (A1) (A1) (E) (E) (E) (E) (A1) (E)
                 (E) (A1) (A2) (E) (E) (A1) (E) (E) (A1) (E) (E)
                 (A1) (E) (E) (A1) (E) (E) (E) (E) (A1) (E) (E)
                 (A1) (A2) (E) (E) (E) (E) (A2) (E) (E) (A1) (A1)
                 (E) (E) (A2) (E) (E) (A1) (E) (E) (E) (E) (A1)
                 (A1) (E) (E) (E) (E) (A1) (E) (E) (E) (E) (A1)
                 (E) (E) (A2) (A1) (E) (E) (A2) (E) (E) (A1) (E)
                 (E) (A2) (E) (E) (A1) (E) (E) (A1) (E) (E) (A1)
                 (E) (E) (A1)
 Beta  Orbitals:
       Occupied  (A1) (E) (E) (A1) (A1) (E) (E) (A1) (E) (E) (A1)
                 (E) (E) (E) (E) (A2)
       Virtual   (A1) (A1) (E) (E) (A1) (A1) (E) (E) (E) (E) (A1)
                 (E) (E) (A1) (A2) (E) (E) (A1) (E) (E) (A1) (E)
                 (E) (A1) (E) (E) (A1) (E) (E) (E) (E) (A1) (E)
                 (E) (A1) (A2) (E) (E) (E) (E) (A2) (E) (E) (A1)
                 (A1) (E) (E) (A2) (E) (E) (A1) (E) (E) (E) (E)
                 (A1) (A1) (E) (E) (E) (E) (A1) (E) (E) (E) (E)
                 (A1) (E) (E) (A2) (A1) (E) (E) (A2) (E) (E) (A1)
                 (E) (E) (A2) (E) (E) (A1) (E) (E) (A1) (E) (E)
                 (A1) (E) (E) (A1)
 The electronic state of the initial guess is 2-A1.
 Initial guess <Sx>= 0.0000 <Sy>= 0.0000 <Sz>= 0.5000 <S**2>= 0.7500 S= 0.5000
 Leave Link  401 at Wed Sep  5 16:40:31 2018, MaxMem=   805306368 cpu:               0.8 elap:               0.1
 (Enter /home/g16/l502.exe)
 Keep R1 and R2 ints in memory in symmetry-blocked form, NReq=26072187.
 FoFCou: FMM=F IPFlag=           0 FMFlag=           0 FMFlg1=           0
         NFxFlg=           0 DoJE=F BraDBF=F KetDBF=F FulRan=T
         wScrn=  0.000000 ICntrl=       600 IOpCl=  0 I1Cent=           0 NGrid=           0
         NMat0=    1 NMatS0=   5886 NMatT0=    0 NMatD0=    1 NMtDS0=    0 NMtDT0=    0
 Petite list used in FoFCou.
 UHF open shell SCF:
 Using DIIS extrapolation, IDIIS=  1040.
 NGot=   805306368 LenX=   787891996 LenY=   787878099
 Requested convergence on RMS density matrix=1.00D-08 within 128 cycles.
 Requested convergence on MAX density matrix=1.00D-06.
 Requested convergence on             energy=1.00D-06.
 No special actions if energy rises.

 Cycle   1  Pass 1  IDiag  1:
 E= -337.630394727234    
 DIIS: error= 3.03D-02 at cycle   1 NSaved=   1.
 NSaved= 1 IEnMin= 1 EnMin= -337.630394727234     IErMin= 1 ErrMin= 3.03D-02
 ErrMax= 3.03D-02  0.00D+00 EMaxC= 1.00D-01 BMatC= 3.34D-01 BMatP= 3.34D-01
 IDIUse=3 WtCom= 6.97D-01 WtEn= 3.03D-01
 Coeff-Com:  0.100D+01
 Coeff-En:   0.100D+01
 Coeff:      0.100D+01
 Gap=     0.339 Goal=   None    Shift=    0.000
 Gap=     0.248 Goal=   None    Shift=    0.000
 GapD=    0.248 DampG=1.000 DampE=0.500 DampFc=0.5000 IDamp=-1.
 Damping current iteration by 5.00D-01
 RMSDP=3.33D-03 MaxDP=1.40D-01              OVMax= 1.25D-01

 Cycle   2  Pass 1  IDiag  1:
 E= -337.643289694170     Delta-E=       -0.012894966936 Rises=F Damp=T
 DIIS: error= 9.89D-03 at cycle   2 NSaved=   2.
 NSaved= 2 IEnMin= 2 EnMin= -337.643289694170     IErMin= 2 ErrMin= 9.89D-03
 ErrMax= 9.89D-03  0.00D+00 EMaxC= 1.00D-01 BMatC= 3.25D-02 BMatP= 3.34D-01
 IDIUse=3 WtCom= 9.01D-01 WtEn= 9.89D-02
 Coeff-Com:  0.190D+00 0.810D+00
 Coeff-En:   0.350D+00 0.650D+00
 Coeff:      0.206D+00 0.794D+00
 Gap=     0.311 Goal=   None    Shift=    0.000
 Gap=     0.331 Goal=   None    Shift=    0.000
 RMSDP=8.32D-04 MaxDP=3.32D-02 DE=-1.29D-02 OVMax= 1.17D-01

 Cycle   3  Pass 1  IDiag  1:
 E= -337.677946885255     Delta-E=       -0.034657191086 Rises=F Damp=F
 DIIS: error= 3.85D-03 at cycle   3 NSaved=   3.
 NSaved= 3 IEnMin= 3 EnMin= -337.677946885255     IErMin= 3 ErrMin= 3.85D-03
 ErrMax= 3.85D-03  0.00D+00 EMaxC= 1.00D-01 BMatC= 3.92D-03 BMatP= 3.25D-02
 IDIUse=3 WtCom= 9.61D-01 WtEn= 3.85D-02
 Coeff-Com: -0.251D-01 0.192D+00 0.833D+00
 Coeff-En:   0.000D+00 0.000D+00 0.100D+01
 Coeff:     -0.241D-01 0.184D+00 0.840D+00
 Gap=     0.302 Goal=   None    Shift=    0.000
 Gap=     0.331 Goal=   None    Shift=    0.000
 RMSDP=1.99D-04 MaxDP=8.64D-03 DE=-3.47D-02 OVMax= 8.47D-03

 Cycle   4  Pass 1  IDiag  1:
 E= -337.678530446332     Delta-E=       -0.000583561077 Rises=F Damp=F
 DIIS: error= 1.05D-03 at cycle   4 NSaved=   4.
 NSaved= 4 IEnMin= 4 EnMin= -337.678530446332     IErMin= 4 ErrMin= 1.05D-03
 ErrMax= 1.05D-03  0.00D+00 EMaxC= 1.00D-01 BMatC= 3.42D-04 BMatP= 3.92D-03
 IDIUse=3 WtCom= 9.90D-01 WtEn= 1.05D-02
 Coeff-Com: -0.229D-01 0.209D-01 0.286D+00 0.716D+00
 Coeff-En:   0.000D+00 0.000D+00 0.000D+00 0.100D+01
 Coeff:     -0.227D-01 0.206D-01 0.283D+00 0.719D+00
 Gap=     0.306 Goal=   None    Shift=    0.000
 Gap=     0.331 Goal=   None    Shift=    0.000
 RMSDP=9.81D-05 MaxDP=5.37D-03 DE=-5.84D-04 OVMax= 5.08D-03

 Cycle   5  Pass 1  IDiag  1:
 E= -337.678597694926     Delta-E=       -0.000067248594 Rises=F Damp=F
 DIIS: error= 2.24D-04 at cycle   5 NSaved=   5.
 NSaved= 5 IEnMin= 5 EnMin= -337.678597694926     IErMin= 5 ErrMin= 2.24D-04
 ErrMax= 2.24D-04  0.00D+00 EMaxC= 1.00D-01 BMatC= 1.06D-05 BMatP= 3.42D-04
 IDIUse=3 WtCom= 9.98D-01 WtEn= 2.24D-03
 Coeff-Com: -0.179D-02-0.988D-02-0.652D-02 0.108D+00 0.910D+00
 Coeff-En:   0.000D+00 0.000D+00 0.000D+00 0.000D+00 0.100D+01
 Coeff:     -0.178D-02-0.985D-02-0.650D-02 0.108D+00 0.910D+00
 Gap=     0.305 Goal=   None    Shift=    0.000
 Gap=     0.332 Goal=   None    Shift=    0.000
 RMSDP=1.99D-05 MaxDP=8.99D-04 DE=-6.72D-05 OVMax= 1.81D-03

 Cycle   6  Pass 1  IDiag  1:
 E= -337.678601861185     Delta-E=       -0.000004166260 Rises=F Damp=F
 DIIS: error= 5.85D-05 at cycle   6 NSaved=   6.
 NSaved= 6 IEnMin= 6 EnMin= -337.678601861185     IErMin= 6 ErrMin= 5.85D-05
 ErrMax= 5.85D-05  0.00D+00 EMaxC= 1.00D-01 BMatC= 9.67D-07 BMatP= 1.06D-05
 IDIUse=1 WtCom= 1.00D+00 WtEn= 0.00D+00
 Coeff-Com:  0.147D-02-0.212D-02-0.240D-01-0.427D-01 0.135D+00 0.932D+00
 Coeff:      0.147D-02-0.212D-02-0.240D-01-0.427D-01 0.135D+00 0.932D+00
 Gap=     0.305 Goal=   None    Shift=    0.000
 Gap=     0.332 Goal=   None    Shift=    0.000
 RMSDP=7.82D-06 MaxDP=4.04D-04 DE=-4.17D-06 OVMax= 4.36D-04

 Cycle   7  Pass 1  IDiag  1:
 E= -337.678602215002     Delta-E=       -0.000000353816 Rises=F Damp=F
 DIIS: error= 1.17D-05 at cycle   7 NSaved=   7.
 NSaved= 7 IEnMin= 7 EnMin= -337.678602215002     IErMin= 7 ErrMin= 1.17D-05
 ErrMax= 1.17D-05  0.00D+00 EMaxC= 1.00D-01 BMatC= 4.95D-08 BMatP= 9.67D-07
 IDIUse=1 WtCom= 1.00D+00 WtEn= 0.00D+00
 Coeff-Com:  0.901D-04 0.680D-03-0.434D-03-0.346D-02-0.478D-01 0.198D-01
 Coeff-Com:  0.103D+01
 Coeff:      0.901D-04 0.680D-03-0.434D-03-0.346D-02-0.478D-01 0.198D-01
 Coeff:      0.103D+01
 Gap=     0.305 Goal=   None    Shift=    0.000
 Gap=     0.332 Goal=   None    Shift=    0.000
 RMSDP=1.27D-06 MaxDP=5.77D-05 DE=-3.54D-07 OVMax= 6.36D-05

 Cycle   8  Pass 1  IDiag  1:
 E= -337.678602234352     Delta-E=       -0.000000019351 Rises=F Damp=F
 DIIS: error= 2.58D-06 at cycle   8 NSaved=   8.
 NSaved= 8 IEnMin= 8 EnMin= -337.678602234352     IErMin= 8 ErrMin= 2.58D-06
 ErrMax= 2.58D-06  0.00D+00 EMaxC= 1.00D-01 BMatC= 2.95D-09 BMatP= 4.95D-08
 IDIUse=1 WtCom= 1.00D+00 WtEn= 0.00D+00
 Coeff-Com: -0.117D-03 0.198D-03 0.194D-02 0.347D-02-0.138D-01-0.747D-01
 Coeff-Com:  0.308D-01 0.105D+01
 Coeff:     -0.117D-03 0.198D-03 0.194D-02 0.347D-02-0.138D-01-0.747D-01
 Coeff:      0.308D-01 0.105D+01
 Gap=     0.305 Goal=   None    Shift=    0.000
 Gap=     0.332 Goal=   None    Shift=    0.000
 RMSDP=3.36D-07 MaxDP=1.38D-05 DE=-1.94D-08 OVMax= 1.29D-05

 Cycle   9  Pass 1  IDiag  1:
 E= -337.678602235545     Delta-E=       -0.000000001192 Rises=F Damp=F
 DIIS: error= 7.65D-07 at cycle   9 NSaved=   9.
 NSaved= 9 IEnMin= 9 EnMin= -337.678602235545     IErMin= 9 ErrMin= 7.65D-07
 ErrMax= 7.65D-07  0.00D+00 EMaxC= 1.00D-01 BMatC= 1.00D-10 BMatP= 2.95D-09
 IDIUse=1 WtCom= 1.00D+00 WtEn= 0.00D+00
 Coeff-Com: -0.279D-05-0.132D-04 0.770D-04-0.112D-03 0.219D-02-0.641D-03
 Coeff-Com: -0.274D-01-0.146D-01 0.104D+01
 Coeff:     -0.279D-05-0.132D-04 0.770D-04-0.112D-03 0.219D-02-0.641D-03
 Coeff:     -0.274D-01-0.146D-01 0.104D+01
 Gap=     0.305 Goal=   None    Shift=    0.000
 Gap=     0.332 Goal=   None    Shift=    0.000
 RMSDP=4.98D-08 MaxDP=1.39D-06 DE=-1.19D-09 OVMax= 1.94D-06

 Cycle  10  Pass 1  IDiag  1:
 E= -337.678602235574     Delta-E=       -0.000000000029 Rises=F Damp=F
 DIIS: error= 8.56D-08 at cycle  10 NSaved=  10.
 NSaved=10 IEnMin=10 EnMin= -337.678602235574     IErMin=10 ErrMin= 8.56D-08
 ErrMax= 8.56D-08  0.00D+00 EMaxC= 1.00D-01 BMatC= 1.68D-12 BMatP= 1.00D-10
 IDIUse=1 WtCom= 1.00D+00 WtEn= 0.00D+00
 Coeff-Com:  0.330D-05-0.488D-05-0.621D-04-0.754D-04 0.122D-03 0.198D-02
 Coeff-Com:  0.205D-02-0.304D-01-0.738D-01 0.110D+01
 Coeff:      0.330D-05-0.488D-05-0.621D-04-0.754D-04 0.122D-03 0.198D-02
 Coeff:      0.205D-02-0.304D-01-0.738D-01 0.110D+01
 Gap=     0.305 Goal=   None    Shift=    0.000
 Gap=     0.332 Goal=   None    Shift=    0.000
 RMSDP=8.57D-09 MaxDP=2.78D-07 DE=-2.89D-11 OVMax= 3.41D-07

 SCF Done:  E(UB3LYP) =  -337.678602236     A.U. after   10 cycles
            NFock= 10  Conv=0.86D-08     -V/T= 2.0026
 <Sx>= 0.0000 <Sy>= 0.0000 <Sz>= 0.5000 <S**2>= 0.7517 S= 0.5008
 <L.S>=  0.00000000000    
 KE= 3.367878873281D+02 PE=-1.050844642302D+03 EE= 2.526388459784D+02
 Annihilation of the first spin contaminant:
 S**2 before annihilation     0.7517,   after     0.7500
 Leave Link  502 at Wed Sep  5 16:40:32 2018, MaxMem=   805306368 cpu:               5.8 elap:               0.8
 (Enter /home/g16/l601.exe)
 Copying SCF densities to generalized density rwf, IOpCl= 1 IROHF=0.

 **********************************************************************

            Population analysis using the SCF density.

 **********************************************************************

 Orbital symmetries:
 Alpha Orbitals:
       Occupied  (A1) (E) (E) (A1) (A1) (E) (E) (A1) (E) (E) (A1)
                 (E) (E) (E) (E) (A2) (A1)
       Virtual   (A1) (E) (E) (A1) (A1) (E) (E) (E) (E) (A1) (E)
                 (E) (A1) (A2) (E) (E) (A1) (E) (E) (A1) (E) (E)
                 (A1) (E) (E) (A1) (E) (E) (E) (E) (A1) (E) (E)
                 (A1) (A2) (E) (E) (E) (E) (A2) (E) (E) (A1) (A1)
                 (E) (E) (A2) (E) (E) (A1) (E) (E) (E) (E) (A1)
                 (A1) (E) (E) (E) (E) (A1) (E) (E) (E) (E) (A1)
                 (E) (E) (A2) (A1) (E) (E) (A2) (E) (E) (A1) (E)
                 (E) (A2) (E) (E) (A1) (E) (E) (A1) (E) (E) (A1)
                 (E) (E) (A1)
 Beta  Orbitals:
       Occupied  (E) (E) (A1) (A1) (A1) (E) (E) (A1) (E) (E) (A1)
                 (E) (E) (E) (E) (A2)
       Virtual   (A1) (A1) (E) (E) (A1) (A1) (E) (E) (E) (E) (A1)
                 (E) (E) (A1) (A2) (E) (E) (A1) (E) (E) (A1) (E)
                 (E) (A1) (E) (E) (A1) (E) (E) (E) (E) (A1) (E)
                 (E) (A1) (A2) (E) (E) (E) (E) (A2) (E) (E) (A1)
                 (A1) (E) (E) (A2) (E) (E) (A1) (E) (E) (E) (E)
                 (A1) (A1) (E) (E) (E) (E) (A1) (E) (E) (E) (E)
                 (A1) (E) (E) (A2) (A1) (E) (E) (A2) (E) (E) (A1)
                 (E) (E) (A2) (E) (E) (A1) (E) (E) (A1) (E) (E)
                 (A1) (E) (E) (A1)
 The electronic state is 2-A1.
 Alpha  occ. eigenvalues --  -24.75480 -24.75480 -24.75480 -10.44618  -1.35932
 Alpha  occ. eigenvalues --   -1.27570  -1.27570  -0.73672  -0.63658  -0.63658
 Alpha  occ. eigenvalues --   -0.59953  -0.51107  -0.51107  -0.47947  -0.47947
 Alpha  occ. eigenvalues --   -0.45349  -0.28895
 Alpha virt. eigenvalues --    0.01650   0.04610   0.04610   0.05013   0.16340
 Alpha virt. eigenvalues --    0.16469   0.16469   0.21089   0.21089   0.22806
 Alpha virt. eigenvalues --    0.23165   0.23165   0.27226   0.30894   0.31070
 Alpha virt. eigenvalues --    0.31070   0.31535   0.38441   0.38441   0.50814
 Alpha virt. eigenvalues --    0.57676   0.57676   0.73356   0.81271   0.81271
 Alpha virt. eigenvalues --    0.95593   1.09067   1.09067   1.23205   1.23205
 Alpha virt. eigenvalues --    1.26914   1.27809   1.27809   1.34554   1.36460
 Alpha virt. eigenvalues --    1.42286   1.42286   1.78203   1.78203   1.92897
 Alpha virt. eigenvalues --    1.93188   1.93188   1.93357   1.96932   2.01253
 Alpha virt. eigenvalues --    2.01253   2.09317   2.25702   2.25702   2.34198
 Alpha virt. eigenvalues --    2.54620   2.54620   2.68221   2.68221   2.77905
 Alpha virt. eigenvalues --    3.01186   3.24627   3.24627   3.38152   3.38152
 Alpha virt. eigenvalues --    3.40678   4.10164   4.10164   6.20978   6.20978
 Alpha virt. eigenvalues --    6.22698   6.28479   6.28479   6.30080   6.33892
 Alpha virt. eigenvalues --    6.70674   6.70674   8.95650   8.97240   8.97240
 Alpha virt. eigenvalues --    8.97847   9.06986   9.06986   9.08685   9.12844
 Alpha virt. eigenvalues --    9.12844   9.32446   9.49492   9.49492   9.53170
 Alpha virt. eigenvalues --    9.70392   9.70392  23.83984  66.72308  66.72308
 Alpha virt. eigenvalues --   66.79080
  Beta  occ. eigenvalues --  -24.75113 -24.75113 -24.75112 -10.42978  -1.34994
  Beta  occ. eigenvalues --   -1.26740  -1.26740  -0.72101  -0.62755  -0.62755
  Beta  occ. eigenvalues --   -0.56333  -0.50183  -0.50183  -0.47029  -0.47029
  Beta  occ. eigenvalues --   -0.45039
  Beta virt. eigenvalues --   -0.11802   0.02429   0.04777   0.04777   0.05593
  Beta virt. eigenvalues --    0.17374   0.18123   0.18123   0.21859   0.21859
  Beta virt. eigenvalues --    0.23091   0.23575   0.23575   0.27429   0.30841
  Beta virt. eigenvalues --    0.31183   0.31183   0.31877   0.38438   0.38438
  Beta virt. eigenvalues --    0.55089   0.58475   0.58475   0.75474   0.82993
  Beta virt. eigenvalues --    0.82993   0.97626   1.09955   1.09955   1.23550
  Beta virt. eigenvalues --    1.23550   1.27216   1.28524   1.28524   1.35176
  Beta virt. eigenvalues --    1.36552   1.42444   1.42444   1.78476   1.78476
  Beta virt. eigenvalues --    1.93257   1.93470   1.93470   1.94513   1.97646
  Beta virt. eigenvalues --    2.01667   2.01667   2.09337   2.26983   2.26983
  Beta virt. eigenvalues --    2.36766   2.55667   2.55667   2.69464   2.69464
  Beta virt. eigenvalues --    2.80958   3.05459   3.29464   3.29464   3.39538
  Beta virt. eigenvalues --    3.39538   3.45355   4.11695   4.11695   6.21731
  Beta virt. eigenvalues --    6.21731   6.23523   6.29075   6.29075   6.30327
  Beta virt. eigenvalues --    6.34764   6.71456   6.71456   8.96832   8.97949
  Beta virt. eigenvalues --    8.97949   8.99189   9.07935   9.07935   9.08893
  Beta virt. eigenvalues --    9.14150   9.14150   9.33296   9.50234   9.50234
  Beta virt. eigenvalues --    9.53931   9.71104   9.71104  23.85832  66.72666
  Beta virt. eigenvalues --   66.72666  66.79440
     Alpha Molecular Orbital Coefficients:
                           1         2         3         4         5
                        (A1)--O   (E)--O    (E)--O    (A1)--O   (A1)--O
     Eigenvalues --   -24.75480 -24.75480 -24.75480 -10.44618  -1.35932
   1 1   C  1S          0.00006  -0.00000   0.00000   0.56326  -0.05738
   2        2S         -0.00023   0.00000   0.00000   0.46314  -0.08772
   3        2PX         0.00000   0.00000  -0.00013   0.00000   0.00000
   4        2PY        -0.00000  -0.00013   0.00000   0.00000  -0.00000
   5        2PZ         0.00006  -0.00000   0.00000  -0.00126  -0.03110
   6        3S          0.00023  -0.00000   0.00000   0.01853   0.24124
   7        3PX         0.00000   0.00000   0.00198   0.00000   0.00000
   8        3PY         0.00000   0.00198   0.00000  -0.00000  -0.00000
   9        3PZ        -0.00101   0.00000   0.00000  -0.00142  -0.03422
  10        4S          0.01377  -0.00000   0.00000  -0.01012  -0.12326
  11        4PX         0.00000   0.00000   0.00296   0.00000   0.00000
  12        4PY         0.00000   0.00296   0.00000  -0.00000   0.00000
  13        4PZ        -0.00343   0.00000   0.00000   0.00029   0.04414
  14        5S         -0.00071   0.00000   0.00000  -0.00034   0.00205
  15        5PX         0.00000   0.00000  -0.00067   0.00000   0.00000
  16        5PY        -0.00000  -0.00067   0.00000   0.00000   0.00000
  17        5PZ         0.00018  -0.00000   0.00000  -0.00012  -0.00037
  18        6D 0       -0.00004   0.00000   0.00000  -0.00026  -0.00891
  19        6D+1        0.00000   0.00000  -0.00003   0.00000   0.00000
  20        6D-1       -0.00000  -0.00003   0.00000   0.00000   0.00000
  21        6D+2       -0.00000  -0.00016   0.00000  -0.00000   0.00000
  22        6D-2        0.00000   0.00000  -0.00016   0.00000   0.00000
  23        7D 0       -0.00129   0.00000   0.00000  -0.00085   0.00992
  24        7D+1        0.00000   0.00000  -0.00106   0.00000   0.00000
  25        7D-1       -0.00000  -0.00106   0.00000   0.00000  -0.00000
  26        7D+2       -0.00000  -0.00087   0.00000   0.00000  -0.00000
  27        7D-2        0.00000   0.00000  -0.00087   0.00000   0.00000
  28 2   F  1S          0.31618   0.44715   0.00000  -0.00004  -0.06489
  29        2S          0.27243   0.38531   0.00000  -0.00012  -0.10476
  30        2PX         0.00000   0.00000   0.00000   0.00000   0.00000
  31        2PY        -0.00051  -0.00074   0.00000  -0.00018  -0.03171
  32        2PZ         0.00016   0.00024   0.00000   0.00004   0.00794
  33        3S          0.00758   0.01031   0.00000   0.00112   0.30751
  34        3PX         0.00000   0.00000   0.00001   0.00000   0.00000
  35        3PY        -0.00005   0.00008   0.00000  -0.00001  -0.05113
  36        3PZ        -0.00001  -0.00006   0.00000   0.00008   0.01320
  37        4S         -0.00701  -0.00821   0.00000  -0.00317   0.25898
  38        4PX         0.00000   0.00000  -0.00037   0.00000   0.00000
  39        4PY         0.00234   0.00210   0.00000   0.00263  -0.04811
  40        4PZ        -0.00055  -0.00046   0.00000  -0.00103   0.01081
  41        5S         -0.00089   0.00264   0.00000   0.00263   0.02021
  42        5PX         0.00000   0.00000  -0.00040   0.00000   0.00000
  43        5PY         0.00067  -0.00080   0.00000  -0.00197  -0.00741
  44        5PZ         0.00007  -0.00015   0.00000   0.00084  -0.00285
  45        6D 0       -0.00003  -0.00003   0.00000  -0.00013  -0.00060
  46        6D+1        0.00000   0.00000  -0.00001   0.00000   0.00000
  47        6D-1       -0.00008  -0.00011   0.00000  -0.00016  -0.00089
  48        6D+2       -0.00011  -0.00016   0.00000  -0.00025  -0.00157
  49        6D-2        0.00000   0.00000  -0.00003   0.00000   0.00000
  50        7D 0        0.00020   0.00024   0.00000   0.00056  -0.00436
  51        7D+1        0.00000   0.00000   0.00003   0.00000   0.00000
  52        7D-1        0.00021   0.00027   0.00000   0.00072  -0.00498
  53        7D+2        0.00033   0.00051   0.00000   0.00109  -0.00866
  54        7D-2        0.00000   0.00000   0.00016   0.00000   0.00000
  55 3   F  1S          0.31618  -0.22357   0.38724  -0.00004  -0.06489
  56        2S          0.27243  -0.19265   0.33369  -0.00012  -0.10476
  57        2PX        -0.00044   0.00032  -0.00056  -0.00016  -0.02747
  58        2PY         0.00025  -0.00018   0.00032   0.00009   0.01586
  59        2PZ         0.00016  -0.00012   0.00021   0.00004   0.00794
  60        3S          0.00758  -0.00515   0.00893   0.00112   0.30751
  61        3PX        -0.00004  -0.00003   0.00006  -0.00001  -0.04428
  62        3PY         0.00003   0.00003  -0.00003   0.00001   0.02556
  63        3PZ        -0.00001   0.00003  -0.00005   0.00008   0.01320
  64        4S         -0.00701   0.00411  -0.00711  -0.00317   0.25898
  65        4PX         0.00202  -0.00107   0.00148   0.00228  -0.04166
  66        4PY        -0.00117   0.00025  -0.00107  -0.00131   0.02405
  67        4PZ        -0.00055   0.00023  -0.00039  -0.00103   0.01081
  68        5S         -0.00089  -0.00132   0.00228   0.00263   0.02021
  69        5PX         0.00058   0.00017  -0.00070  -0.00171  -0.00641
  70        5PY        -0.00033  -0.00050   0.00017   0.00099   0.00370
  71        5PZ         0.00007   0.00008  -0.00013   0.00084  -0.00285
  72        6D 0       -0.00003   0.00002  -0.00003  -0.00013  -0.00060
  73        6D+1       -0.00007   0.00005  -0.00008  -0.00014  -0.00077
  74        6D-1        0.00004  -0.00003   0.00005   0.00008   0.00045
  75        6D+2        0.00006  -0.00007   0.00006   0.00012   0.00079
  76        6D-2       -0.00010   0.00006  -0.00013  -0.00021  -0.00136
  77        7D 0        0.00020  -0.00012   0.00021   0.00056  -0.00436
  78        7D+1        0.00018  -0.00010   0.00021   0.00063  -0.00431
  79        7D-1       -0.00010   0.00009  -0.00010  -0.00036   0.00249
  80        7D+2       -0.00017   0.00025  -0.00015  -0.00054   0.00433
  81        7D-2        0.00029  -0.00015   0.00042   0.00094  -0.00750
  82 4   F  1S          0.31618  -0.22357  -0.38724  -0.00004  -0.06489
  83        2S          0.27243  -0.19265  -0.33369  -0.00012  -0.10476
  84        2PX         0.00044  -0.00032  -0.00056   0.00016   0.02747
  85        2PY         0.00025  -0.00018  -0.00032   0.00009   0.01586
  86        2PZ         0.00016  -0.00012  -0.00021   0.00004   0.00794
  87        3S          0.00758  -0.00515  -0.00893   0.00112   0.30751
  88        3PX         0.00004   0.00003   0.00006   0.00001   0.04428
  89        3PY         0.00003   0.00003   0.00003   0.00001   0.02556
  90        3PZ        -0.00001   0.00003   0.00005   0.00008   0.01320
  91        4S         -0.00701   0.00411   0.00711  -0.00317   0.25898
  92        4PX        -0.00202   0.00107   0.00148  -0.00228   0.04166
  93        4PY        -0.00117   0.00025   0.00107  -0.00131   0.02405
  94        4PZ        -0.00055   0.00023   0.00039  -0.00103   0.01081
  95        5S         -0.00089  -0.00132  -0.00228   0.00263   0.02021
  96        5PX        -0.00058  -0.00017  -0.00070   0.00171   0.00641
  97        5PY        -0.00033  -0.00050  -0.00017   0.00099   0.00370
  98        5PZ         0.00007   0.00008   0.00013   0.00084  -0.00285
  99        6D 0       -0.00003   0.00002   0.00003  -0.00013  -0.00060
 100        6D+1        0.00007  -0.00005  -0.00008   0.00014   0.00077
 101        6D-1        0.00004  -0.00003  -0.00005   0.00008   0.00045
 102        6D+2        0.00006  -0.00007  -0.00006   0.00012   0.00079
 103        6D-2        0.00010  -0.00006  -0.00013   0.00021   0.00136
 104        7D 0        0.00020  -0.00012  -0.00021   0.00056  -0.00436
 105        7D+1       -0.00018   0.00010   0.00021  -0.00063   0.00431
 106        7D-1       -0.00010   0.00009   0.00010  -0.00036   0.00249
 107        7D+2       -0.00017   0.00025   0.00015  -0.00054   0.00433
 108        7D-2       -0.00029   0.00015   0.00042  -0.00094   0.00750
                           6         7         8         9        10
                        (E)--O    (E)--O    (A1)--O   (E)--O    (E)--O
     Eigenvalues --    -1.27570  -1.27570  -0.73672  -0.63658  -0.63658
   1 1   C  1S         -0.00000   0.00000  -0.08624   0.00000   0.00000
   2        2S         -0.00000   0.00000  -0.13728   0.00000   0.00000
   3        2PX         0.00000   0.07647   0.00000   0.00000   0.15974
   4        2PY         0.07647   0.00000  -0.00000  -0.15974   0.00000
   5        2PZ        -0.00000   0.00000  -0.01994  -0.00000   0.00000
   6        3S          0.00000   0.00000   0.42128  -0.00000   0.00000
   7        3PX         0.00000   0.08993   0.00000   0.00000   0.23399
   8        3PY         0.08993   0.00000  -0.00000  -0.23399   0.00000
   9        3PZ        -0.00000   0.00000  -0.02813  -0.00000   0.00000
  10        4S          0.00000   0.00000   0.15706   0.00000   0.00000
  11        4PX         0.00000  -0.00178   0.00000   0.00000   0.07182
  12        4PY        -0.00178   0.00000  -0.00000  -0.07182   0.00000
  13        4PZ        -0.00000   0.00000   0.02275  -0.00000   0.00000
  14        5S          0.00000   0.00000  -0.02259   0.00000   0.00000
  15        5PX         0.00000   0.00824   0.00000   0.00000   0.00027
  16        5PY         0.00824   0.00000   0.00000  -0.00027   0.00000
  17        5PZ        -0.00000   0.00000   0.00904  -0.00000   0.00000
  18        6D 0       -0.00000   0.00000  -0.00321   0.00000   0.00000
  19        6D+1        0.00000  -0.01125   0.00000   0.00000  -0.01162
  20        6D-1       -0.01125   0.00000   0.00000   0.01162   0.00000
  21        6D+2       -0.01584   0.00000   0.00000   0.00913   0.00000
  22        6D-2        0.00000  -0.01584   0.00000   0.00000  -0.00913
  23        7D 0       -0.00000   0.00000   0.00732  -0.00000   0.00000
  24        7D+1        0.00000  -0.00603   0.00000   0.00000  -0.01543
  25        7D-1       -0.00603   0.00000   0.00000   0.01543   0.00000
  26        7D+2       -0.00746   0.00000  -0.00000   0.00163   0.00000
  27        7D-2        0.00000  -0.00746   0.00000   0.00000  -0.00163
  28 2   F  1S         -0.10197   0.00000   0.03531  -0.02833   0.00000
  29        2S         -0.16516   0.00000   0.05786  -0.04637   0.00000
  30        2PX         0.00000   0.00637   0.00000   0.00000   0.09407
  31        2PY        -0.03225   0.00000  -0.12080   0.18028   0.00000
  32        2PZ         0.01239   0.00000   0.03479  -0.07930   0.00000
  33        3S          0.49288   0.00000  -0.18204   0.14491   0.00000
  34        3PX         0.00000   0.00980   0.00000   0.00000   0.13674
  35        3PY        -0.05430   0.00000  -0.17458   0.26136   0.00000
  36        3PZ         0.02046   0.00000   0.05008  -0.11481   0.00000
  37        4S          0.37894   0.00000  -0.17247   0.17082   0.00000
  38        4PX         0.00000   0.00613   0.00000   0.00000   0.10490
  39        4PY        -0.03597   0.00000  -0.12415   0.17915   0.00000
  40        4PZ         0.01123   0.00000   0.03610  -0.08381   0.00000
  41        5S         -0.03685   0.00000  -0.01367   0.04242   0.00000
  42        5PX         0.00000   0.00479   0.00000   0.00000   0.00508
  43        5PY         0.01548   0.00000  -0.00101   0.00985   0.00000
  44        5PZ        -0.00040   0.00000  -0.00598  -0.00355   0.00000
  45        6D 0       -0.00034   0.00000  -0.00144   0.00166   0.00000
  46        6D+1        0.00000   0.00003   0.00000   0.00000   0.00055
  47        6D-1       -0.00148   0.00000  -0.00146   0.00267   0.00000
  48        6D+2       -0.00182   0.00000  -0.00265   0.00364   0.00000
  49        6D-2        0.00000  -0.00066   0.00000   0.00000  -0.00227
  50        7D 0       -0.00432   0.00000  -0.00471   0.00463   0.00000
  51        7D+1        0.00000   0.00057   0.00000   0.00000   0.00369
  52        7D-1       -0.00619   0.00000  -0.00510   0.00905   0.00000
  53        7D+2       -0.00991   0.00000  -0.00923   0.00969   0.00000
  54        7D-2        0.00000  -0.00106   0.00000   0.00000  -0.00975
  55 3   F  1S          0.05099  -0.08831   0.03531   0.01417   0.02454
  56        2S          0.08258  -0.14303   0.05786   0.02318   0.04016
  57        2PX         0.01672  -0.02259  -0.10462  -0.11880  -0.11169
  58        2PY        -0.00328   0.01672   0.06040  -0.02548   0.11880
  59        2PZ        -0.00619   0.01073   0.03479   0.03965   0.06867
  60        3S         -0.24644   0.42685  -0.18204  -0.07245  -0.12549
  61        3PX         0.02776  -0.03827  -0.15119  -0.17238  -0.16184
  62        3PY        -0.00622   0.02776   0.08729  -0.03721   0.17238
  63        3PZ        -0.01023   0.01772   0.05008   0.05740   0.09943
  64        4S         -0.18947   0.32817  -0.17247  -0.08541  -0.14794
  65        4PX         0.01823  -0.02545  -0.10752  -0.12300  -0.10813
  66        4PY        -0.00440   0.01823   0.06207  -0.03389   0.12300
  67        4PZ        -0.00561   0.00972   0.03610   0.04190   0.07258
  68        5S          0.01843  -0.03192  -0.01367  -0.02121  -0.03674
  69        5PX        -0.00463   0.01281  -0.00087  -0.00647  -0.00611
  70        5PY         0.00746  -0.00463   0.00050  -0.00135   0.00647
  71        5PZ         0.00020  -0.00035  -0.00598   0.00177   0.00307
  72        6D 0        0.00017  -0.00030  -0.00144  -0.00083  -0.00143
  73        6D+1        0.00066  -0.00110  -0.00127  -0.00139  -0.00187
  74        6D-1       -0.00035   0.00066   0.00073   0.00026   0.00139
  75        6D+2       -0.00095   0.00050   0.00133   0.00261   0.00059
  76        6D-2        0.00050  -0.00153  -0.00230  -0.00059  -0.00330
  77        7D 0        0.00216  -0.00374  -0.00471  -0.00231  -0.00401
  78        7D+1        0.00292  -0.00450  -0.00442  -0.00552  -0.00586
  79        7D-1       -0.00112   0.00292   0.00255  -0.00050   0.00552
  80        7D+2       -0.00327   0.00383   0.00462   0.00973  -0.00003
  81        7D-2        0.00383  -0.00769  -0.00800   0.00003  -0.00970
  82 4   F  1S          0.05099   0.08831   0.03531   0.01417  -0.02454
  83        2S          0.08258   0.14303   0.05786   0.02318  -0.04016
  84        2PX        -0.01672  -0.02259   0.10462   0.11880  -0.11169
  85        2PY        -0.00328  -0.01672   0.06040  -0.02548  -0.11880
  86        2PZ        -0.00619  -0.01073   0.03479   0.03965  -0.06867
  87        3S         -0.24644  -0.42685  -0.18204  -0.07245   0.12549
  88        3PX        -0.02776  -0.03827   0.15119   0.17238  -0.16184
  89        3PY        -0.00622  -0.02776   0.08729  -0.03721  -0.17238
  90        3PZ        -0.01023  -0.01772   0.05008   0.05740  -0.09943
  91        4S         -0.18947  -0.32817  -0.17247  -0.08541   0.14794
  92        4PX        -0.01823  -0.02545   0.10752   0.12300  -0.10813
  93        4PY        -0.00440  -0.01823   0.06207  -0.03389  -0.12300
  94        4PZ        -0.00561  -0.00972   0.03610   0.04190  -0.07258
  95        5S          0.01843   0.03192  -0.01367  -0.02121   0.03674
  96        5PX         0.00463   0.01281   0.00087   0.00647  -0.00611
  97        5PY         0.00746   0.00463   0.00050  -0.00135  -0.00647
  98        5PZ         0.00020   0.00035  -0.00598   0.00177  -0.00307
  99        6D 0        0.00017   0.00030  -0.00144  -0.00083   0.00143
 100        6D+1       -0.00066  -0.00110   0.00127   0.00139  -0.00187
 101        6D-1       -0.00035  -0.00066   0.00073   0.00026  -0.00139
 102        6D+2       -0.00095  -0.00050   0.00133   0.00261  -0.00059
 103        6D-2       -0.00050  -0.00153   0.00230   0.00059  -0.00330
 104        7D 0        0.00216   0.00374  -0.00471  -0.00231   0.00401
 105        7D+1       -0.00292  -0.00450   0.00442   0.00552  -0.00586
 106        7D-1       -0.00112  -0.00292   0.00255  -0.00050  -0.00552
 107        7D+2       -0.00327  -0.00383   0.00462   0.00973   0.00003
 108        7D-2       -0.00383  -0.00769   0.00800  -0.00003  -0.00970
                          11        12        13        14        15
                        (A1)--O   (E)--O    (E)--O    (E)--O    (E)--O
     Eigenvalues --    -0.59953  -0.51107  -0.51107  -0.47947  -0.47947
   1 1   C  1S         -0.02052   0.00000   0.00000   0.00000   0.00000
   2        2S         -0.03301   0.00000   0.00000   0.00000   0.00000
   3        2PX         0.00000   0.00000  -0.02603   0.00000  -0.01968
   4        2PY        -0.00000   0.02603   0.00000  -0.01968   0.00000
   5        2PZ         0.15372   0.00000   0.00000   0.00000   0.00000
   6        3S          0.10112  -0.00000   0.00000  -0.00000   0.00000
   7        3PX         0.00000   0.00000  -0.02335   0.00000  -0.01620
   8        3PY        -0.00000   0.02335   0.00000  -0.01620   0.00000
   9        3PZ         0.23392   0.00000   0.00000   0.00000   0.00000
  10        4S          0.11556   0.00000   0.00000   0.00000   0.00000
  11        4PX         0.00000   0.00000  -0.00673   0.00000  -0.01312
  12        4PY         0.00000   0.00673   0.00000  -0.01312   0.00000
  13        4PZ         0.10997  -0.00000   0.00000  -0.00000   0.00000
  14        5S         -0.00436   0.00000   0.00000   0.00000   0.00000
  15        5PX         0.00000   0.00000   0.00999   0.00000   0.02367
  16        5PY        -0.00000  -0.00999   0.00000   0.02367   0.00000
  17        5PZ         0.01548  -0.00000   0.00000  -0.00000   0.00000
  18        6D 0       -0.00930  -0.00000   0.00000  -0.00000   0.00000
  19        6D+1        0.00000   0.00000  -0.00772   0.00000   0.01701
  20        6D-1        0.00000   0.00772   0.00000   0.01701   0.00000
  21        6D+2        0.00000  -0.02503   0.00000   0.01328   0.00000
  22        6D-2        0.00000   0.00000   0.02503   0.00000   0.01328
  23        7D 0       -0.01839  -0.00000   0.00000  -0.00000   0.00000
  24        7D+1        0.00000   0.00000  -0.02021   0.00000   0.02607
  25        7D-1       -0.00000   0.02021   0.00000   0.02607   0.00000
  26        7D+2        0.00000  -0.04232   0.00000   0.02129   0.00000
  27        7D-2        0.00000   0.00000   0.04232   0.00000   0.02129
  28 2   F  1S         -0.00180   0.00074   0.00000   0.00039   0.00000
  29        2S         -0.00300   0.00109   0.00000   0.00072   0.00000
  30        2PX         0.00000   0.00000   0.19618   0.00000   0.12528
  31        2PY         0.05421  -0.03594   0.00000   0.15147   0.00000
  32        2PZ         0.13546   0.16632   0.00000   0.18332   0.00000
  33        3S          0.01033  -0.00231   0.00000  -0.00245   0.00000
  34        3PX         0.00000   0.00000   0.28253   0.00000   0.17946
  35        3PY         0.07795  -0.05466   0.00000   0.22084   0.00000
  36        3PZ         0.19574   0.24094   0.00000   0.26264   0.00000
  37        4S          0.00462  -0.00916   0.00000   0.00382   0.00000
  38        4PX         0.00000   0.00000   0.23444   0.00000   0.15857
  39        4PY         0.06374  -0.03752   0.00000   0.18191   0.00000
  40        4PZ         0.15712   0.19421   0.00000   0.23102   0.00000
  41        5S         -0.00106  -0.02811   0.00000   0.03348   0.00000
  42        5PX         0.00000   0.00000   0.02547   0.00000   0.00993
  43        5PY         0.00764   0.01116   0.00000  -0.00302   0.00000
  44        5PZ         0.00090   0.02301   0.00000   0.02857   0.00000
  45        6D 0        0.00142   0.00056   0.00000   0.00126   0.00000
  46        6D+1        0.00000   0.00000   0.00068   0.00000   0.00053
  47        6D-1       -0.00194  -0.00191   0.00000  -0.00037   0.00000
  48        6D+2        0.00102  -0.00080   0.00000   0.00154   0.00000
  49        6D-2        0.00000   0.00000  -0.00205   0.00000  -0.00064
  50        7D 0        0.00737   0.00189   0.00000   0.00990   0.00000
  51        7D+1        0.00000   0.00000   0.00211   0.00000   0.00328
  52        7D-1       -0.01284  -0.01116   0.00000  -0.00869   0.00000
  53        7D+2        0.00493  -0.00403   0.00000   0.01185   0.00000
  54        7D-2        0.00000   0.00000  -0.01260   0.00000  -0.00826
  55 3   F  1S         -0.00180  -0.00037  -0.00064  -0.00019   0.00033
  56        2S         -0.00300  -0.00054  -0.00094  -0.00036   0.00062
  57        2PX         0.04695  -0.06938   0.07600  -0.01134   0.14492
  58        2PY        -0.02711  -0.15612   0.06938   0.13182  -0.01134
  59        2PZ         0.13546  -0.08316  -0.14403  -0.09166   0.15876
  60        3S          0.01033   0.00115   0.00200   0.00122  -0.00212
  61        3PX         0.06750  -0.09867   0.11163  -0.01792   0.21050
  62        3PY        -0.03897  -0.22557   0.09867   0.18981  -0.01792
  63        3PZ         0.19574  -0.12047  -0.20866  -0.13132   0.22746
  64        4S          0.00462   0.00458   0.00793  -0.00191   0.00331
  65        4PX         0.05520  -0.08527   0.08675  -0.01011   0.17608
  66        4PY        -0.03187  -0.18521   0.08527   0.16441  -0.01011
  67        4PZ         0.15712  -0.09711  -0.16819  -0.11551   0.20007
  68        5S         -0.00106   0.01406   0.02434  -0.01674   0.02900
  69        5PX         0.00662  -0.01586  -0.00200   0.00561   0.00022
  70        5PY        -0.00382  -0.01631   0.01586   0.00670   0.00561
  71        5PZ         0.00090  -0.01151  -0.01993  -0.01428   0.02474
  72        6D 0        0.00142  -0.00028  -0.00048  -0.00063   0.00109
  73        6D+1       -0.00168   0.00053   0.00160   0.00039  -0.00014
  74        6D-1        0.00097  -0.00098  -0.00053   0.00031   0.00039
  75        6D+2       -0.00051   0.00134  -0.00123  -0.00009  -0.00094
  76        6D-2        0.00089   0.00123   0.00009  -0.00094   0.00099
  77        7D 0        0.00737  -0.00095  -0.00164  -0.00495   0.00858
  78        7D+1       -0.01112   0.00392   0.00890   0.00518  -0.00570
  79        7D-1        0.00642  -0.00437  -0.00392   0.00029   0.00518
  80        7D+2       -0.00247   0.00844  -0.00720  -0.00323  -0.00871
  81        7D-2        0.00427   0.00720  -0.00013  -0.00871   0.00682
  82 4   F  1S         -0.00180  -0.00037   0.00064  -0.00019  -0.00033
  83        2S         -0.00300  -0.00054   0.00094  -0.00036  -0.00062
  84        2PX        -0.04695   0.06938   0.07600   0.01134   0.14492
  85        2PY        -0.02711  -0.15612  -0.06938   0.13182   0.01134
  86        2PZ         0.13546  -0.08316   0.14403  -0.09166  -0.15876
  87        3S          0.01033   0.00115  -0.00200   0.00122   0.00212
  88        3PX        -0.06750   0.09867   0.11163   0.01792   0.21050
  89        3PY        -0.03897  -0.22557  -0.09867   0.18981   0.01792
  90        3PZ         0.19574  -0.12047   0.20866  -0.13132  -0.22746
  91        4S          0.00462   0.00458  -0.00793  -0.00191  -0.00331
  92        4PX        -0.05520   0.08527   0.08675   0.01011   0.17608
  93        4PY        -0.03187  -0.18521  -0.08527   0.16441   0.01011
  94        4PZ         0.15712  -0.09711   0.16819  -0.11551  -0.20007
  95        5S         -0.00106   0.01406  -0.02434  -0.01674  -0.02900
  96        5PX        -0.00662   0.01586  -0.00200  -0.00561   0.00022
  97        5PY        -0.00382  -0.01631  -0.01586   0.00670  -0.00561
  98        5PZ         0.00090  -0.01151   0.01993  -0.01428  -0.02474
  99        6D 0        0.00142  -0.00028   0.00048  -0.00063  -0.00109
 100        6D+1        0.00168  -0.00053   0.00160  -0.00039  -0.00014
 101        6D-1        0.00097  -0.00098   0.00053   0.00031  -0.00039
 102        6D+2       -0.00051   0.00134   0.00123  -0.00009   0.00094
 103        6D-2       -0.00089  -0.00123   0.00009   0.00094   0.00099
 104        7D 0        0.00737  -0.00095   0.00164  -0.00495  -0.00858
 105        7D+1        0.01112  -0.00392   0.00890  -0.00518  -0.00570
 106        7D-1        0.00642  -0.00437   0.00392   0.00029  -0.00518
 107        7D+2       -0.00247   0.00844   0.00720  -0.00323   0.00871
 108        7D-2       -0.00427  -0.00720  -0.00013   0.00871   0.00682
                          16        17        18        19        20
                        (A2)--O   (A1)--O   (A1)--V   (E)--V    (E)--V
     Eigenvalues --    -0.45349  -0.28895   0.01650   0.04610   0.04610
   1 1   C  1S          0.00000  -0.05282  -0.00050   0.00000   0.00000
   2        2S          0.00000  -0.08632   0.00124   0.00000   0.00000
   3        2PX         0.00000   0.00000   0.00000   0.06410   0.00000
   4        2PY         0.00000  -0.00000  -0.00000   0.00000   0.06410
   5        2PZ         0.00000   0.24024  -0.10389   0.00000   0.00000
   6        3S          0.00000   0.27055  -0.08025   0.00000  -0.00000
   7        3PX         0.00000   0.00000   0.00000   0.09396   0.00000
   8        3PY         0.00000  -0.00000   0.00000   0.00000   0.09396
   9        3PZ         0.00000   0.35712  -0.14938   0.00000   0.00000
  10        4S          0.00000   0.53147   0.86947   0.00000   0.00000
  11        4PX        -0.00000   0.00000   0.00000   0.46842   0.00000
  12        4PY         0.00000   0.00000   0.00000   0.00000   0.46842
  13        4PZ         0.00000   0.28121  -0.47999   0.00000  -0.00000
  14        5S          0.00000   0.10902   2.16625   0.00000   0.00000
  15        5PX        -0.00000   0.00000   0.00000   1.47933   0.00000
  16        5PY         0.00000  -0.00000   0.00000   0.00000   1.47933
  17        5PZ         0.00000   0.01693  -0.24261   0.00000   0.00000
  18        6D 0        0.00000   0.02018   0.00658   0.00000  -0.00000
  19        6D+1       -0.00000   0.00000   0.00000   0.00696   0.00000
  20        6D-1        0.00000   0.00000   0.00000   0.00000   0.00696
  21        6D+2        0.00000  -0.00000   0.00000   0.00000   0.00458
  22        6D-2       -0.00000   0.00000   0.00000   0.00458   0.00000
  23        7D 0        0.00000   0.03166  -0.00682   0.00000  -0.00000
  24        7D+1       -0.00000   0.00000   0.00000   0.01109   0.00000
  25        7D-1        0.00000  -0.00000  -0.00000   0.00000   0.01109
  26        7D+2        0.00000  -0.00000  -0.00000   0.00000  -0.00880
  27        7D-2       -0.00000   0.00000   0.00000  -0.00880   0.00000
  28 2   F  1S          0.00000   0.00906   0.01698   0.00000   0.01871
  29        2S          0.00000   0.01515   0.02859   0.00000   0.03174
  30        2PX         0.19552   0.00000   0.00000  -0.05400   0.00000
  31        2PY         0.00000   0.03101   0.01252   0.00000  -0.00366
  32        2PZ         0.00000  -0.12628   0.02745   0.00000  -0.02507
  33        3S          0.00000  -0.05130  -0.10170   0.00000  -0.11848
  34        3PX         0.28112   0.00000   0.00000  -0.08387   0.00000
  35        3PY         0.00000   0.04783   0.01755   0.00000  -0.00733
  36        3PZ         0.00000  -0.18152   0.03799   0.00000  -0.03806
  37        4S          0.00000  -0.07858  -0.16744   0.00000  -0.14398
  38        4PX         0.24888   0.00000   0.00000  -0.05988   0.00000
  39        4PY         0.00000   0.04944   0.07534   0.00000   0.04060
  40        4PZ         0.00000  -0.17506   0.03612   0.00000  -0.04605
  41        5S          0.00000  -0.04338  -0.75365   0.00000  -0.90182
  42        5PX         0.02362   0.00000   0.00000  -0.21470   0.00000
  43        5PY         0.00000   0.01019   0.20799   0.00000   0.16032
  44        5PZ         0.00000  -0.06674   0.01356   0.00000  -0.14296
  45        6D 0        0.00000   0.00084  -0.00072   0.00000  -0.00014
  46        6D+1        0.00039   0.00000   0.00000   0.00035   0.00000
  47        6D-1        0.00000  -0.00064   0.00067   0.00000  -0.00081
  48        6D+2        0.00000   0.00065  -0.00080   0.00000  -0.00066
  49        6D-2       -0.00081   0.00000   0.00000  -0.00032   0.00000
  50        7D 0        0.00000   0.00500   0.00133   0.00000   0.00086
  51        7D+1        0.00494   0.00000   0.00000   0.00292   0.00000
  52        7D-1        0.00000  -0.00133   0.00753   0.00000   0.00060
  53        7D+2        0.00000   0.00447   0.00331   0.00000   0.00065
  54        7D-2       -0.01246   0.00000   0.00000  -0.00088   0.00000
  55 3   F  1S          0.00000   0.00906   0.01698   0.01620  -0.00935
  56        2S          0.00000   0.01515   0.02859   0.02749  -0.01587
  57        2PX        -0.09776   0.02686   0.01085  -0.01624  -0.02180
  58        2PY        -0.16932  -0.01551  -0.00626  -0.02180  -0.04141
  59        2PZ        -0.00000  -0.12628   0.02745  -0.02171   0.01253
  60        3S         -0.00000  -0.05130  -0.10170  -0.10261   0.05924
  61        3PX        -0.14056   0.04142   0.01520  -0.02646  -0.03314
  62        3PY        -0.24345  -0.02391  -0.00878  -0.03314  -0.06473
  63        3PZ        -0.00000  -0.18152   0.03799  -0.03296   0.01903
  64        4S          0.00000  -0.07858  -0.16744  -0.12469   0.07199
  65        4PX        -0.12444   0.04282   0.06524   0.01548  -0.04351
  66        4PY        -0.21554  -0.02472  -0.03767  -0.04351  -0.03476
  67        4PZ        -0.00000  -0.17506   0.03612  -0.03988   0.02302
  68        5S         -0.00000  -0.04338  -0.75365  -0.78100   0.45091
  69        5PX        -0.01181   0.00883   0.18012   0.06657  -0.16239
  70        5PY        -0.02046  -0.00510  -0.10399  -0.16239  -0.12094
  71        5PZ        -0.00000  -0.06674   0.01356  -0.12381   0.07148
  72        6D 0       -0.00000   0.00084  -0.00072  -0.00012   0.00007
  73        6D+1       -0.00020  -0.00056   0.00058  -0.00052   0.00050
  74        6D-1       -0.00034   0.00032  -0.00034   0.00050   0.00006
  75        6D+2        0.00070  -0.00032   0.00040   0.00015  -0.00041
  76        6D-2        0.00040   0.00056  -0.00070  -0.00058   0.00015
  77        7D 0       -0.00000   0.00500   0.00133   0.00075  -0.00043
  78        7D+1       -0.00247  -0.00115   0.00652   0.00118   0.00100
  79        7D-1       -0.00428   0.00067  -0.00377   0.00100   0.00234
  80        7D+2        0.01079  -0.00224  -0.00166  -0.00066  -0.00050
  81        7D-2        0.00623   0.00388   0.00287   0.00027  -0.00066
  82 4   F  1S         -0.00000   0.00906   0.01698  -0.01620  -0.00935
  83        2S         -0.00000   0.01515   0.02859  -0.02749  -0.01587
  84        2PX        -0.09776  -0.02686  -0.01085  -0.01624   0.02180
  85        2PY         0.16932  -0.01551  -0.00626   0.02180  -0.04141
  86        2PZ         0.00000  -0.12628   0.02745   0.02171   0.01253
  87        3S          0.00000  -0.05130  -0.10170   0.10261   0.05924
  88        3PX        -0.14056  -0.04142  -0.01520  -0.02646   0.03314
  89        3PY         0.24345  -0.02391  -0.00878   0.03314  -0.06473
  90        3PZ         0.00000  -0.18152   0.03799   0.03296   0.01903
  91        4S         -0.00000  -0.07858  -0.16744   0.12469   0.07199
  92        4PX        -0.12444  -0.04282  -0.06524   0.01548   0.04351
  93        4PY         0.21554  -0.02472  -0.03767   0.04351  -0.03476
  94        4PZ         0.00000  -0.17506   0.03612   0.03988   0.02302
  95        5S          0.00000  -0.04338  -0.75365   0.78100   0.45091
  96        5PX        -0.01181  -0.00883  -0.18012   0.06657   0.16239
  97        5PY         0.02046  -0.00510  -0.10399   0.16239  -0.12094
  98        5PZ         0.00000  -0.06674   0.01356   0.12381   0.07148
  99        6D 0        0.00000   0.00084  -0.00072   0.00012   0.00007
 100        6D+1       -0.00020   0.00056  -0.00058  -0.00052  -0.00050
 101        6D-1        0.00034   0.00032  -0.00034  -0.00050   0.00006
 102        6D+2       -0.00070  -0.00032   0.00040  -0.00015  -0.00041
 103        6D-2        0.00040  -0.00056   0.00070  -0.00058  -0.00015
 104        7D 0        0.00000   0.00500   0.00133  -0.00075  -0.00043
 105        7D+1       -0.00247   0.00115  -0.00652   0.00118  -0.00100
 106        7D-1        0.00428   0.00067  -0.00377  -0.00100   0.00234
 107        7D+2       -0.01079  -0.00224  -0.00166   0.00066  -0.00050
 108        7D-2        0.00623  -0.00388  -0.00287   0.00027   0.00066
                          21        22        23        24        25
                        (A1)--V   (A1)--V   (E)--V    (E)--V    (E)--V
     Eigenvalues --     0.05013   0.16340   0.16469   0.16469   0.21089
   1 1   C  1S          0.01710  -0.09385  -0.00000   0.00000   0.00000
   2        2S          0.02846  -0.15527  -0.00000   0.00000   0.00000
   3        2PX         0.00000   0.00000   0.00000   0.28182   0.00000
   4        2PY         0.00000  -0.00000   0.28182   0.00000  -0.06682
   5        2PZ        -0.04812  -0.17569  -0.00000   0.00000   0.00000
   6        3S         -0.09147   0.54200   0.00000   0.00000  -0.00000
   7        3PX         0.00000   0.00000   0.00000   0.42551   0.00000
   8        3PY         0.00000  -0.00000   0.42551   0.00000  -0.21339
   9        3PZ        -0.06031  -0.30298  -0.00000   0.00000   0.00000
  10        4S         -0.39431   1.76477   0.00000   0.00000   0.00000
  11        4PX         0.00000   0.00000   0.00000   1.55029   0.00000
  12        4PY        -0.00000  -0.00000   1.55029   0.00000   0.49394
  13        4PZ        -0.04707  -0.49899  -0.00000   0.00000  -0.00000
  14        5S         -0.20679  -1.25480  -0.00000   0.00000   0.00000
  15        5PX         0.00000   0.00000   0.00000  -0.68068   0.00000
  16        5PY        -0.00000   0.00000  -0.68068   0.00000  -0.09976
  17        5PZ         1.36568   0.28420   0.00000   0.00000  -0.00000
  18        6D 0        0.00186   0.02462   0.00000   0.00000  -0.00000
  19        6D+1        0.00000   0.00000   0.00000   0.01899   0.00000
  20        6D-1       -0.00000  -0.00000   0.01899   0.00000  -0.00897
  21        6D+2       -0.00000  -0.00000   0.02637   0.00000  -0.00729
  22        6D-2        0.00000   0.00000   0.00000   0.02637   0.00000
  23        7D 0        0.02440   0.09142   0.00000   0.00000  -0.00000
  24        7D+1        0.00000   0.00000   0.00000   0.02407   0.00000
  25        7D-1        0.00000  -0.00000   0.02407   0.00000  -0.07101
  26        7D+2        0.00000  -0.00000   0.04043   0.00000  -0.05963
  27        7D-2        0.00000   0.00000   0.00000   0.04043   0.00000
  28 2   F  1S         -0.00527   0.02604   0.02927   0.00000   0.00057
  29        2S         -0.00891   0.04336   0.04837   0.00000   0.00099
  30        2PX         0.00000   0.00000   0.00000  -0.03648   0.00000
  31        2PY        -0.01162   0.12427   0.09281   0.00000  -0.07425
  32        2PZ        -0.02419  -0.00575  -0.06619   0.00000   0.08557
  33        3S          0.03227  -0.13940  -0.14729   0.00000  -0.00682
  34        3PX         0.00000   0.00000   0.00000  -0.05126   0.00000
  35        3PY        -0.01715   0.19218   0.14932   0.00000  -0.08801
  36        3PZ        -0.04313  -0.01112  -0.09105   0.00000   0.09657
  37        4S          0.04745  -0.41826  -0.57357   0.00000  -0.02507
  38        4PX         0.00000   0.00000   0.00000  -0.07682   0.00000
  39        4PY        -0.03472   0.21486   0.18416   0.00000  -0.22471
  40        4PZ         0.00567  -0.00975  -0.16349   0.00000   0.28930
  41        5S          0.24469   0.33612  -0.64229   0.00000  -0.91424
  42        5PX         0.00000   0.00000   0.00000  -0.27570   0.00000
  43        5PY        -0.04792   0.36635   0.91618   0.00000   1.25300
  44        5PZ        -0.13422   0.01401  -0.17161   0.00000  -0.99891
  45        6D 0       -0.00008  -0.00233  -0.00085   0.00000  -0.00010
  46        6D+1        0.00000   0.00000   0.00000   0.00171   0.00000
  47        6D-1        0.00088   0.00045  -0.00266   0.00000  -0.00002
  48        6D+2        0.00012  -0.00344  -0.00260   0.00000  -0.00006
  49        6D-2        0.00000   0.00000   0.00000  -0.00399   0.00000
  50        7D 0       -0.00256  -0.01111  -0.00086   0.00000  -0.00436
  51        7D+1        0.00000   0.00000   0.00000   0.01294   0.00000
  52        7D-1        0.00285   0.00434  -0.01280   0.00000  -0.01073
  53        7D+2       -0.00169  -0.01602  -0.00981   0.00000  -0.01091
  54        7D-2        0.00000   0.00000   0.00000  -0.02231   0.00000
  55 3   F  1S         -0.00527   0.02604  -0.01464   0.02535  -0.00029
  56        2S         -0.00891   0.04336  -0.02419   0.04189  -0.00049
  57        2PX        -0.01007   0.10762  -0.05598   0.06049   0.05558
  58        2PY         0.00581  -0.06214  -0.00416  -0.05598   0.02201
  59        2PZ        -0.02419  -0.00575   0.03310  -0.05732  -0.04279
  60        3S          0.03227  -0.13940   0.07365  -0.12756   0.00341
  61        3PX        -0.01486   0.16643  -0.08685   0.09918   0.06859
  62        3PY         0.00858  -0.09609  -0.00111  -0.08685   0.03078
  63        3PZ        -0.04313  -0.01112   0.04553  -0.07885  -0.04828
  64        4S          0.04745  -0.41826   0.28678  -0.49672   0.01254
  65        4PX        -0.03007   0.18607  -0.11301   0.11892   0.15594
  66        4PY         0.01736  -0.10743  -0.01158  -0.11301   0.04539
  67        4PZ         0.00567  -0.00975   0.08174  -0.14158  -0.14465
  68        5S          0.24469   0.33612   0.32115  -0.55624   0.45712
  69        5PX        -0.04150   0.31727  -0.51610   0.61821  -0.60188
  70        5PY         0.02396  -0.18317   0.02227  -0.51610   0.21052
  71        5PZ        -0.13422   0.01401   0.08580  -0.14861   0.49946
  72        6D 0       -0.00008  -0.00233   0.00043  -0.00074   0.00005
  73        6D+1        0.00076   0.00039   0.00189  -0.00157  -0.00028
  74        6D-1       -0.00044  -0.00023   0.00062   0.00189  -0.00049
  75        6D+2       -0.00006   0.00172  -0.00364  -0.00060   0.00075
  76        6D-2        0.00011  -0.00298  -0.00060  -0.00294   0.00047
  77        7D 0       -0.00256  -0.01111   0.00043  -0.00075   0.00218
  78        7D+1        0.00246   0.00376   0.01115  -0.00637   0.00056
  79        7D-1       -0.00142  -0.00217   0.00650   0.01115  -0.00977
  80        7D+2        0.00084   0.00801  -0.01919  -0.00541  -0.00216
  81        7D-2       -0.00146  -0.01387  -0.00541  -0.01294   0.00505
  82 4   F  1S         -0.00527   0.02604  -0.01464  -0.02535  -0.00029
  83        2S         -0.00891   0.04336  -0.02419  -0.04189  -0.00049
  84        2PX         0.01007  -0.10762   0.05598   0.06049  -0.05558
  85        2PY         0.00581  -0.06214  -0.00416   0.05598   0.02201
  86        2PZ        -0.02419  -0.00575   0.03310   0.05732  -0.04279
  87        3S          0.03227  -0.13940   0.07365   0.12756   0.00341
  88        3PX         0.01486  -0.16643   0.08685   0.09918  -0.06859
  89        3PY         0.00858  -0.09609  -0.00111   0.08685   0.03078
  90        3PZ        -0.04313  -0.01112   0.04553   0.07885  -0.04828
  91        4S          0.04745  -0.41826   0.28678   0.49672   0.01254
  92        4PX         0.03007  -0.18607   0.11301   0.11892  -0.15594
  93        4PY         0.01736  -0.10743  -0.01158   0.11301   0.04539
  94        4PZ         0.00567  -0.00975   0.08174   0.14158  -0.14465
  95        5S          0.24469   0.33612   0.32115   0.55624   0.45712
  96        5PX         0.04150  -0.31727   0.51610   0.61821   0.60188
  97        5PY         0.02396  -0.18317   0.02227   0.51610   0.21052
  98        5PZ        -0.13422   0.01401   0.08580   0.14861   0.49946
  99        6D 0       -0.00008  -0.00233   0.00043   0.00074   0.00005
 100        6D+1       -0.00076  -0.00039  -0.00189  -0.00157   0.00028
 101        6D-1       -0.00044  -0.00023   0.00062  -0.00189  -0.00049
 102        6D+2       -0.00006   0.00172  -0.00364   0.00060   0.00075
 103        6D-2       -0.00011   0.00298   0.00060  -0.00294  -0.00047
 104        7D 0       -0.00256  -0.01111   0.00043   0.00075   0.00218
 105        7D+1       -0.00246  -0.00376  -0.01115  -0.00637  -0.00056
 106        7D-1       -0.00142  -0.00217   0.00650  -0.01115  -0.00977
 107        7D+2        0.00084   0.00801  -0.01919   0.00541  -0.00216
 108        7D-2        0.00146   0.01387   0.00541  -0.01294  -0.00505
                          26        27        28        29        30
                        (E)--V    (A1)--V   (E)--V    (E)--V    (A1)--V
     Eigenvalues --     0.21089   0.22806   0.23165   0.23165   0.27226
   1 1   C  1S          0.00000   0.00725   0.00000   0.00000  -0.03560
   2        2S          0.00000   0.01605   0.00000   0.00000  -0.05693
   3        2PX        -0.06682   0.00000   0.00000   0.10520   0.00000
   4        2PY         0.00000   0.00000  -0.10520   0.00000   0.00000
   5        2PZ         0.00000   0.06402   0.00000   0.00000   0.01639
   6        3S          0.00000  -0.16992  -0.00000   0.00000   0.06728
   7        3PX        -0.21339   0.00000   0.00000   0.19026   0.00000
   8        3PY         0.00000   0.00000  -0.19026   0.00000   0.00000
   9        3PZ         0.00000   0.18110   0.00000   0.00000  -0.02030
  10        4S          0.00000   2.37830   0.00000   0.00000   4.55117
  11        4PX         0.49394   0.00000   0.00000  -0.18439   0.00000
  12        4PY         0.00000  -0.00000   0.18439   0.00000   0.00000
  13        4PZ         0.00000  -0.63323  -0.00000   0.00000  -0.36101
  14        5S          0.00000   0.55040   0.00000   0.00000   1.75762
  15        5PX        -0.09976   0.00000   0.00000  -0.57979   0.00000
  16        5PY         0.00000  -0.00000   0.57979   0.00000   0.00000
  17        5PZ         0.00000  -0.56775  -0.00000   0.00000   0.64552
  18        6D 0        0.00000  -0.01334  -0.00000   0.00000   0.00274
  19        6D+1       -0.00897   0.00000   0.00000   0.00403   0.00000
  20        6D-1        0.00000   0.00000  -0.00403   0.00000   0.00000
  21        6D+2        0.00000   0.00000  -0.00865   0.00000   0.00000
  22        6D-2       -0.00729   0.00000   0.00000   0.00865   0.00000
  23        7D 0        0.00000  -0.10915  -0.00000   0.00000  -0.07762
  24        7D+1       -0.07101   0.00000   0.00000   0.08742   0.00000
  25        7D-1        0.00000   0.00000  -0.08742   0.00000  -0.00000
  26        7D+2        0.00000   0.00000  -0.07069   0.00000  -0.00000
  27        7D-2       -0.05963   0.00000   0.00000   0.07069   0.00000
  28 2   F  1S          0.00000  -0.00869  -0.01102   0.00000  -0.01028
  29        2S          0.00000  -0.01494  -0.01860   0.00000  -0.01708
  30        2PX         0.05410   0.00000   0.00000  -0.10326   0.00000
  31        2PY         0.00000  -0.07714  -0.06592   0.00000   0.02895
  32        2PZ         0.00000  -0.05055  -0.03481   0.00000   0.02996
  33        3S          0.00000   0.05899   0.06691   0.00000   0.05719
  34        3PX         0.07038   0.00000   0.00000  -0.12012   0.00000
  35        3PY         0.00000  -0.10461  -0.08914   0.00000   0.02108
  36        3PZ         0.00000  -0.05819  -0.02404   0.00000   0.02787
  37        4S          0.00000   0.04691   0.06986   0.00000   0.21425
  38        4PX         0.13543   0.00000   0.00000  -0.32875   0.00000
  39        4PY         0.00000  -0.14817  -0.11456   0.00000   0.23697
  40        4PZ         0.00000  -0.17192  -0.19788   0.00000   0.10988
  41        5S          0.00000  -0.82484  -0.43350   0.00000  -2.22265
  42        5PX        -0.13698   0.00000   0.00000   0.80767   0.00000
  43        5PY         0.00000   0.92507   0.29056   0.00000   0.70760
  44        5PZ         0.00000   0.33682   0.69255   0.00000  -0.90027
  45        6D 0        0.00000  -0.00069  -0.00010   0.00000  -0.00108
  46        6D+1       -0.00065   0.00000   0.00000  -0.00014   0.00000
  47        6D-1        0.00000  -0.00128   0.00194   0.00000  -0.00269
  48        6D+2        0.00000  -0.00114  -0.00038   0.00000  -0.00360
  49        6D-2        0.00102   0.00000   0.00000  -0.00040   0.00000
  50        7D 0        0.00000  -0.00673  -0.00017   0.00000   0.00749
  51        7D+1       -0.00945   0.00000   0.00000  -0.00310   0.00000
  52        7D-1        0.00000  -0.00638   0.01291   0.00000  -0.00556
  53        7D+2        0.00000  -0.00207  -0.00208   0.00000  -0.00752
  54        7D-2        0.00075   0.00000   0.00000  -0.00093   0.00000
  55 3   F  1S          0.00049  -0.00869   0.00551   0.00954  -0.01028
  56        2S          0.00085  -0.01494   0.00930   0.01611  -0.01708
  57        2PX        -0.04216  -0.06681   0.07326   0.02363   0.02507
  58        2PY         0.05558   0.03857   0.06096  -0.07326  -0.01448
  59        2PZ         0.07411  -0.05055   0.01741   0.03015   0.02996
  60        3S         -0.00591   0.05899  -0.03346  -0.05795   0.05719
  61        3PX        -0.04841  -0.09059   0.09061   0.03682   0.01826
  62        3PY         0.06859   0.05230   0.06781  -0.09061  -0.01054
  63        3PZ         0.08363  -0.05819   0.01202   0.02082   0.02787
  64        4S         -0.02172   0.04691  -0.03493  -0.06050   0.21425
  65        4PX        -0.13468  -0.12832   0.19196   0.00374   0.20523
  66        4PY         0.15594   0.07408   0.21792  -0.19196  -0.11849
  67        4PZ         0.25054  -0.17192   0.09894   0.17137   0.10988
  68        5S         -0.79176  -0.82484   0.21675   0.37543  -2.22265
  69        5PX         0.90551   0.80113  -0.47555  -0.01600   0.61280
  70        5PY        -0.60188  -0.46253  -0.53312   0.47555  -0.35380
  71        5PZ        -0.86508   0.33682  -0.34627  -0.59977  -0.90027
  72        6D 0       -0.00009  -0.00069   0.00005   0.00009  -0.00108
  73        6D+1       -0.00018  -0.00111  -0.00078  -0.00149  -0.00233
  74        6D-1       -0.00028   0.00064   0.00059   0.00078   0.00134
  75        6D+2        0.00047   0.00057   0.00021  -0.00034   0.00180
  76        6D-2        0.00021  -0.00099   0.00034   0.00019  -0.00312
  77        7D 0       -0.00377  -0.00673   0.00009   0.00015   0.00749
  78        7D+1       -0.01041  -0.00553  -0.00425  -0.01046  -0.00481
  79        7D-1        0.00056   0.00319   0.00555   0.00425   0.00278
  80        7D+2        0.00505   0.00104   0.00017  -0.00130   0.00376
  81        7D-2       -0.00800  -0.00179   0.00130   0.00133  -0.00651
  82 4   F  1S         -0.00049  -0.00869   0.00551  -0.00954  -0.01028
  83        2S         -0.00085  -0.01494   0.00930  -0.01611  -0.01708
  84        2PX        -0.04216   0.06681  -0.07326   0.02363  -0.02507
  85        2PY        -0.05558   0.03857   0.06096   0.07326  -0.01448
  86        2PZ        -0.07411  -0.05055   0.01741  -0.03015   0.02996
  87        3S          0.00591   0.05899  -0.03346   0.05795   0.05719
  88        3PX        -0.04841   0.09059  -0.09061   0.03682  -0.01826
  89        3PY        -0.06859   0.05230   0.06781   0.09061  -0.01054
  90        3PZ        -0.08363  -0.05819   0.01202  -0.02082   0.02787
  91        4S          0.02172   0.04691  -0.03493   0.06050   0.21425
  92        4PX        -0.13468   0.12832  -0.19196   0.00374  -0.20523
  93        4PY        -0.15594   0.07408   0.21792   0.19196  -0.11849
  94        4PZ        -0.25054  -0.17192   0.09894  -0.17137   0.10988
  95        5S          0.79176  -0.82484   0.21675  -0.37543  -2.22265
  96        5PX         0.90551  -0.80113   0.47555  -0.01600  -0.61280
  97        5PY         0.60188  -0.46253  -0.53312  -0.47555  -0.35380
  98        5PZ         0.86508   0.33682  -0.34627   0.59977  -0.90027
  99        6D 0        0.00009  -0.00069   0.00005  -0.00009  -0.00108
 100        6D+1       -0.00018   0.00111   0.00078  -0.00149   0.00233
 101        6D-1        0.00028   0.00064   0.00059  -0.00078   0.00134
 102        6D+2       -0.00047   0.00057   0.00021   0.00034   0.00180
 103        6D-2        0.00021   0.00099  -0.00034   0.00019   0.00312
 104        7D 0        0.00377  -0.00673   0.00009  -0.00015   0.00749
 105        7D+1       -0.01041   0.00553   0.00425  -0.01046   0.00481
 106        7D-1       -0.00056   0.00319   0.00555  -0.00425   0.00278
 107        7D+2       -0.00505   0.00104   0.00017   0.00130   0.00376
 108        7D-2       -0.00800   0.00179  -0.00130   0.00133   0.00651
                          31        32        33        34        35
                        (A2)--V   (E)--V    (E)--V    (A1)--V   (E)--V
     Eigenvalues --     0.30894   0.31070   0.31070   0.31535   0.38441
   1 1   C  1S          0.00000   0.00000   0.00000  -0.02883  -0.00000
   2        2S          0.00000   0.00000   0.00000  -0.05089  -0.00000
   3        2PX        -0.00000   0.00000   0.07391   0.00000   0.00000
   4        2PY         0.00000  -0.07391   0.00000  -0.00000  -0.08709
   5        2PZ         0.00000   0.00000   0.00000  -0.09316  -0.00000
   6        3S          0.00000  -0.00000   0.00000   0.13211   0.00000
   7        3PX        -0.00000   0.00000   0.18245   0.00000   0.00000
   8        3PY         0.00000  -0.18245   0.00000  -0.00000  -0.12566
   9        3PZ         0.00000   0.00000   0.00000  -0.19184  -0.00000
  10        4S          0.00000  -0.00000   0.00000   1.73889  -0.00000
  11        4PX        -0.00000   0.00000   1.54192   0.00000   0.00000
  12        4PY         0.00000  -1.54192   0.00000  -0.00000  -2.28956
  13        4PZ         0.00000   0.00000   0.00000  -0.94193   0.00000
  14        5S          0.00000  -0.00000   0.00000   2.88830   0.00000
  15        5PX        -0.00000   0.00000   2.01875   0.00000   0.00000
  16        5PY         0.00000  -2.01875   0.00000  -0.00000  -0.00528
  17        5PZ         0.00000   0.00000   0.00000  -1.56906  -0.00000
  18        6D 0        0.00000  -0.00000   0.00000   0.00998   0.00000
  19        6D+1       -0.00000   0.00000   0.00632   0.00000   0.00000
  20        6D-1        0.00000  -0.00632   0.00000  -0.00000  -0.00333
  21        6D+2        0.00000  -0.00703   0.00000  -0.00000  -0.00455
  22        6D-2       -0.00000   0.00000   0.00703   0.00000   0.00000
  23        7D 0        0.00000  -0.00000   0.00000  -0.00560   0.00000
  24        7D+1        0.00000   0.00000  -0.08733   0.00000   0.00000
  25        7D-1        0.00000   0.08733   0.00000   0.00000   0.07935
  26        7D+2        0.00000   0.11623   0.00000   0.00000   0.03241
  27        7D-2        0.00000   0.00000  -0.11623   0.00000   0.00000
  28 2   F  1S          0.00000   0.01184   0.00000  -0.00835   0.01681
  29        2S          0.00000   0.01992   0.00000  -0.01371   0.02626
  30        2PX        -0.05798   0.00000   0.04155   0.00000   0.00000
  31        2PY         0.00000  -0.08191   0.00000   0.06999  -0.02776
  32        2PZ         0.00000  -0.02016   0.00000  -0.04524   0.02694
  33        3S          0.00000  -0.07512   0.00000   0.04305  -0.04272
  34        3PX        -0.05122   0.00000   0.04524   0.00000   0.00000
  35        3PY         0.00000  -0.08131   0.00000   0.07027  -0.02730
  36        3PZ         0.00000  -0.01497   0.00000  -0.04514   0.02417
  37        4S          0.00000  -0.05425   0.00000   0.21278  -0.86916
  38        4PX        -0.28354   0.00000   0.15391   0.00000   0.00000
  39        4PY         0.00000  -0.51046   0.00000   0.37486  -0.15590
  40        4PZ         0.00000  -0.06647   0.00000  -0.20936   0.14543
  41        5S          0.00000   2.13140   0.00000  -2.29233   6.37168
  42        5PX         1.44743   0.00000  -1.25795   0.00000   0.00000
  43        5PY         0.00000   0.89464   0.00000  -0.16368  -3.15768
  44        5PZ         0.00000   0.96603   0.00000   0.80968   0.33269
  45        6D 0        0.00000  -0.00028   0.00000  -0.00181   0.00363
  46        6D+1       -0.00015   0.00000   0.00013   0.00000   0.00000
  47        6D-1        0.00000   0.00282   0.00000   0.00030   0.00211
  48        6D+2        0.00000   0.00220   0.00000  -0.00261   0.00466
  49        6D-2        0.00233   0.00000  -0.00273   0.00000   0.00000
  50        7D 0        0.00000  -0.01160   0.00000   0.00304   0.01398
  51        7D+1       -0.00116   0.00000   0.00918   0.00000   0.00000
  52        7D-1        0.00000   0.00461   0.00000   0.01099   0.00832
  53        7D+2        0.00000  -0.01274   0.00000  -0.00018   0.00695
  54        7D-2        0.01271   0.00000  -0.00733   0.00000   0.00000
  55 3   F  1S          0.00000  -0.00592  -0.01026  -0.00835  -0.00841
  56        2S          0.00000  -0.00996  -0.01725  -0.01371  -0.01313
  57        2PX         0.02899   0.01747   0.07182   0.06061   0.02072
  58        2PY         0.05021  -0.05164  -0.01747  -0.03499   0.00813
  59        2PZ        -0.00000   0.01008   0.01745  -0.04524  -0.01347
  60        3S         -0.00000   0.03756   0.06506   0.04305   0.02136
  61        3PX         0.02561   0.01562   0.07230   0.06085   0.01364
  62        3PY         0.04436  -0.05426  -0.01562  -0.03513  -0.00368
  63        3PZ        -0.00000   0.00748   0.01296  -0.04514  -0.01209
  64        4S         -0.00000   0.02713   0.04698   0.21278   0.43458
  65        4PX         0.14177   0.15439   0.42132   0.32464   0.15570
  66        4PY         0.24555  -0.24305  -0.15439  -0.18743   0.11378
  67        4PZ        -0.00000   0.03324   0.05757  -0.20936  -0.07271
  68        5S          0.00000  -1.06570  -1.84585  -2.29233  -3.18584
  69        5PX        -0.72371   0.15732  -0.98547  -0.14175   1.00373
  70        5PY        -1.25351   1.16712  -0.15732   0.08184  -1.41916
  71        5PZ         0.00000  -0.48301  -0.83660   0.80968  -0.16635
  72        6D 0       -0.00000   0.00014   0.00024  -0.00181  -0.00181
  73        6D+1        0.00008  -0.00128  -0.00208   0.00026  -0.00142
  74        6D-1        0.00013   0.00061   0.00128  -0.00015  -0.00034
  75        6D+2       -0.00202   0.00260  -0.00023   0.00131   0.00097
  76        6D-2       -0.00117   0.00023  -0.00233  -0.00226  -0.00213
  77        7D 0       -0.00000   0.00580   0.01005   0.00304  -0.00699
  78        7D+1        0.00058  -0.00597  -0.00116   0.00952  -0.00995
  79        7D-1        0.00101  -0.00573   0.00597  -0.00550  -0.00891
  80        7D+2       -0.01101   0.00232  -0.00869   0.00009  -0.00858
  81        7D-2       -0.00635   0.00869   0.00772  -0.00016  -0.00897
  82 4   F  1S         -0.00000  -0.00592   0.01026  -0.00835  -0.00841
  83        2S         -0.00000  -0.00996   0.01725  -0.01371  -0.01313
  84        2PX         0.02899  -0.01747   0.07182  -0.06061  -0.02072
  85        2PY        -0.05021  -0.05164   0.01747  -0.03499   0.00813
  86        2PZ         0.00000   0.01008  -0.01745  -0.04524  -0.01347
  87        3S          0.00000   0.03756  -0.06506   0.04305   0.02136
[...]
                                           -0.0261  0.0054  0.0021 -0.0906 -0.0214
                                            0.0123  0.0054  0.0395  0.0173  0.0309
                                            0.0115  0.0178  0.0066  0.0228  0.0100
                                           -0.0179 -0.0091
                ( 27.11%)  -0.5207* F   4 s( 24.69%)p 3.04( 75.16%)d 0.01(  0.15%)
                                           -0.0000  0.4963 -0.0230 -0.0089 -0.0001
                                            0.6789 -0.0147 -0.0059 -0.0011  0.3919
                                           -0.0085 -0.0034 -0.0007  0.3698 -0.0027
                                           -0.0001 -0.0016  0.0254  0.0025  0.0187
                                            0.0017  0.0108  0.0010  0.0147  0.0014
                                           -0.0121 -0.0015


 NHO Directionality and "Bond Bending" (deviations from line of nuclear centers)

         [Thresholds for printing:  angular deviation  >  1.0 degree]
                                    hybrid p-character > 25.0%
                                    orbital occupancy  >  0.10e

                                Line of Centers        Hybrid 1              Hybrid 2
                                ---------------  -------------------   ------------------
                NBO               Theta   Phi    Theta   Phi    Dev    Theta   Phi    Dev
 ========================================================================================
     1. BD (   1) C   1 - F   2   107.5   90.0    96.3   90.0  11.2     64.3  270.0   8.2
     2. BD (   1) C   1 - F   3   107.5  330.0    96.3  330.0  11.2     64.3  150.0   8.2
     3. BD (   1) C   1 - F   4   107.5  210.0    96.3  210.0  11.2     64.3   30.0   8.2
     8. LP*(   1) C   1             --     --      0.0    0.0   --       --     --    --
     9. LP (   1) F   2             --     --     96.7   90.0   --       --     --    --
    10. LP (   2) F   2             --     --     90.0    0.0   --       --     --    --
    11. LP (   3) F   2             --     --    159.9  270.0   --       --     --    --
    12. LP (   1) F   3             --     --     96.7  330.0   --       --     --    --
    13. LP (   2) F   3             --     --     90.0   60.0   --       --     --    --
    14. LP (   3) F   3             --     --    159.9  150.0   --       --     --    --
    15. LP (   1) F   4             --     --     96.7  210.0   --       --     --    --
    16. LP (   2) F   4             --     --     90.0  120.0   --       --     --    --
    17. LP (   3) F   4             --     --    159.9   30.0   --       --     --    --


 Second Order Perturbation Theory Analysis of Fock Matrix in NBO Basis

     Threshold for printing:   0.25 kcal/mol
                                                                              E(2)  E(j)-E(i) F(i,j)
         Donor NBO (i)                     Acceptor NBO (j)                 kcal/mol   a.u.    a.u. 
 ===================================================================================================

 within unit  1
   1. BD (   1) C   1 - F   2        /  8. LP*(   1) C   1                    0.76    0.90    0.037
   1. BD (   1) C   1 - F   2        / 18. RY*(   1) C   1                    0.29    2.49    0.034
   1. BD (   1) C   1 - F   2        /107. BD*(   1) C   1 - F   3            0.42    1.28    0.030
   1. BD (   1) C   1 - F   2        /108. BD*(   1) C   1 - F   4            0.42    1.28    0.030
   2. BD (   1) C   1 - F   3        /  8. LP*(   1) C   1                    0.76    0.90    0.037
   2. BD (   1) C   1 - F   3        /106. BD*(   1) C   1 - F   2            0.42    1.28    0.030
   2. BD (   1) C   1 - F   3        /108. BD*(   1) C   1 - F   4            0.42    1.28    0.030
   3. BD (   1) C   1 - F   4        /  8. LP*(   1) C   1                    0.76    0.90    0.037
   3. BD (   1) C   1 - F   4        /106. BD*(   1) C   1 - F   2            0.42    1.28    0.030
   3. BD (   1) C   1 - F   4        /107. BD*(   1) C   1 - F   3            0.42    1.28    0.030
   4. CR (   1) C   1                /  8. LP*(   1) C   1                    0.52   10.23    0.103
   5. CR (   1) F   2                /  8. LP*(   1) C   1                    0.31   24.37    0.122
   5. CR (   1) F   2                / 18. RY*(   1) C   1                    0.94   25.96    0.197
   6. CR (   1) F   3                /  8. LP*(   1) C   1                    0.31   24.37    0.122
   6. CR (   1) F   3                / 19. RY*(   2) C   1                    0.70   25.96    0.171
   7. CR (   1) F   4                /  8. LP*(   1) C   1                    0.31   24.37    0.122
   7. CR (   1) F   4                / 19. RY*(   2) C   1                    0.70   25.96    0.171
   8. LP*(   1) C   1                / 22. RY*(   5) C   1                    0.28    1.53    0.059
   8. LP*(   1) C   1                / 28. RY*(  11) C   1                    0.46    1.90    0.085
   8. LP*(   1) C   1                / 38. RY*(  21) C   1                    0.36    2.11    0.079
   8. LP*(   1) C   1                /106. BD*(   1) C   1 - F   2            1.00    0.38    0.052
   8. LP*(   1) C   1                /107. BD*(   1) C   1 - F   3            1.00    0.38    0.052
   8. LP*(   1) C   1                /108. BD*(   1) C   1 - F   4            1.00    0.38    0.052
   9. LP (   1) F   2                /  8. LP*(   1) C   1                    0.58    0.97    0.033
   9. LP (   1) F   2                / 18. RY*(   1) C   1                    2.89    2.56    0.109
   9. LP (   1) F   2                / 21. RY*(   4) C   1                    0.35    3.01    0.041
   9. LP (   1) F   2                / 22. RY*(   5) C   1                    0.76    2.50    0.055
   9. LP (   1) F   2                / 23. RY*(   6) C   1                    0.61    3.44    0.058
   9. LP (   1) F   2                / 36. RY*(  19) C   1                    0.28    2.48    0.034
  10. LP (   2) F   2                / 19. RY*(   2) C   1                    0.68    1.92    0.046
  10. LP (   2) F   2                / 20. RY*(   3) C   1                    0.69    2.37    0.052
  10. LP (   2) F   2                /107. BD*(   1) C   1 - F   3            5.38    0.71    0.078
  10. LP (   2) F   2                /108. BD*(   1) C   1 - F   4            5.38    0.71    0.078
  11. LP (   3) F   2                /  8. LP*(   1) C   1                   26.92    0.35    0.130
  11. LP (   3) F   2                / 21. RY*(   4) C   1                    0.35    2.38    0.038
  11. LP (   3) F   2                / 23. RY*(   6) C   1                    0.37    2.81    0.042
  11. LP (   3) F   2                /106. BD*(   1) C   1 - F   2            0.40    0.73    0.022
  11. LP (   3) F   2                /107. BD*(   1) C   1 - F   3            0.55    0.73    0.026
  11. LP (   3) F   2                /108. BD*(   1) C   1 - F   4            0.55    0.73    0.026
  12. LP (   1) F   3                /  8. LP*(   1) C   1                    0.58    0.97    0.033
  12. LP (   1) F   3                / 18. RY*(   1) C   1                    0.72    2.56    0.054
  12. LP (   1) F   3                / 19. RY*(   2) C   1                    2.17    2.56    0.094
  12. LP (   1) F   3                / 20. RY*(   3) C   1                    0.26    3.01    0.035
  12. LP (   1) F   3                / 22. RY*(   5) C   1                    0.76    2.50    0.055
  12. LP (   1) F   3                / 24. RY*(   7) C   1                    0.45    3.44    0.050
  13. LP (   2) F   3                / 18. RY*(   1) C   1                    0.51    1.92    0.040
  13. LP (   2) F   3                / 21. RY*(   4) C   1                    0.52    2.37    0.045
  13. LP (   2) F   3                /106. BD*(   1) C   1 - F   2            5.38    0.71    0.078
  13. LP (   2) F   3                /108. BD*(   1) C   1 - F   4            5.38    0.71    0.078
  14. LP (   3) F   3                /  8. LP*(   1) C   1                   26.92    0.35    0.130
  14. LP (   3) F   3                / 20. RY*(   3) C   1                    0.27    2.38    0.033
  14. LP (   3) F   3                / 24. RY*(   7) C   1                    0.28    2.81    0.037
  14. LP (   3) F   3                /106. BD*(   1) C   1 - F   2            0.55    0.73    0.026
  14. LP (   3) F   3                /107. BD*(   1) C   1 - F   3            0.40    0.73    0.022
  14. LP (   3) F   3                /108. BD*(   1) C   1 - F   4            0.55    0.73    0.026
  15. LP (   1) F   4                /  8. LP*(   1) C   1                    0.58    0.97    0.033
  15. LP (   1) F   4                / 18. RY*(   1) C   1                    0.72    2.56    0.054
  15. LP (   1) F   4                / 19. RY*(   2) C   1                    2.17    2.56    0.094
  15. LP (   1) F   4                / 20. RY*(   3) C   1                    0.26    3.01    0.035
  15. LP (   1) F   4                / 22. RY*(   5) C   1                    0.76    2.50    0.055
  15. LP (   1) F   4                / 24. RY*(   7) C   1                    0.45    3.44    0.050
  16. LP (   2) F   4                / 18. RY*(   1) C   1                    0.51    1.92    0.040
  16. LP (   2) F   4                / 21. RY*(   4) C   1                    0.52    2.37    0.045
  16. LP (   2) F   4                /106. BD*(   1) C   1 - F   2            5.38    0.71    0.078
  16. LP (   2) F   4                /107. BD*(   1) C   1 - F   3            5.38    0.71    0.078
  17. LP (   3) F   4                /  8. LP*(   1) C   1                   26.92    0.35    0.130
  17. LP (   3) F   4                / 20. RY*(   3) C   1                    0.27    2.38    0.033
  17. LP (   3) F   4                / 24. RY*(   7) C   1                    0.28    2.81    0.037
  17. LP (   3) F   4                /106. BD*(   1) C   1 - F   2            0.55    0.73    0.026
  17. LP (   3) F   4                /107. BD*(   1) C   1 - F   3            0.55    0.73    0.026
  17. LP (   3) F   4                /108. BD*(   1) C   1 - F   4            0.40    0.73    0.022
 106. BD*(   1) C   1 - F   2        / 18. RY*(   1) C   1                    0.35    1.21    0.143
 106. BD*(   1) C   1 - F   2        / 23. RY*(   6) C   1                    0.30    2.09    0.187
 107. BD*(   1) C   1 - F   3        / 19. RY*(   2) C   1                    0.26    1.21    0.124
 108. BD*(   1) C   1 - F   4        / 19. RY*(   2) C   1                    0.26    1.21    0.124


 Natural Bond Orbitals (Summary):

                                                            Principal Delocalizations
           NBO                        Occupancy    Energy   (geminal,vicinal,remote)
 ====================================================================================
 Molecular unit  1  (CF3)
     1. BD (   1) C   1 - F   2          0.99794    -1.04543  8(g),107(g),108(g),18(g)
     2. BD (   1) C   1 - F   3          0.99794    -1.04543  8(g),106(g),108(g)
     3. BD (   1) C   1 - F   4          0.99794    -1.04543  8(g),106(g),107(g)
     4. CR (   1) C   1                  0.99983   -10.37180  8(g)
     5. CR (   1) F   2                  0.99996   -24.51132  18(v),8(v)
     6. CR (   1) F   3                  0.99996   -24.51132  19(v),8(v)
     7. CR (   1) F   4                  0.99996   -24.51132  19(v),8(v)
     8. LP*(   1) C   1                  0.19485    -0.14219  106(g),107(g),108(g),28(g)
                                                    38(g),22(g)
     9. LP (   1) F   2                  0.99635    -1.11638  18(v),22(v),8(v),23(v),21(v)
                                                    36(v)
    10. LP (   2) F   2                  0.97311    -0.47666  107(v),108(v),20(v),19(v)
    11. LP (   3) F   2                  0.93362    -0.48722  8(v),107(v),108(v),106(g)
                                                    23(v),21(v)
    12. LP (   1) F   3                  0.99635    -1.11638  19(v),22(v),18(v),8(v),24(v)
                                                    20(v)
    13. LP (   2) F   3                  0.97311    -0.47666  106(v),108(v),21(v),18(v)
    14. LP (   3) F   3                  0.93362    -0.48722  8(v),106(v),108(v),107(g)
                                                    24(v),20(v)
    15. LP (   1) F   4                  0.99635    -1.11638  19(v),22(v),18(v),8(v),24(v)
                                                    20(v)
    16. LP (   2) F   4                  0.97311    -0.47666  106(v),107(v),21(v),18(v)
    17. LP (   3) F   4                  0.93362    -0.48722  8(v),106(v),107(v),108(g)
                                                    24(v),20(v)
    18. RY*(   1) C   1                  0.00523     1.44612   
    19. RY*(   2) C   1                  0.00523     1.44612   
    20. RY*(   3) C   1                  0.00192     1.89583   
    21. RY*(   4) C   1                  0.00192     1.89583   
    22. RY*(   5) C   1                  0.00133     1.38719   
    23. RY*(   6) C   1                  0.00092     2.32354   
    24. RY*(   7) C   1                  0.00092     2.32354   
    25. RY*(   8) C   1                  0.00000     0.91160   
    26. RY*(   9) C   1                  0.00000     2.00174   
    27. RY*(  10) C   1                  0.00000     1.00650   
    28. RY*(  11) C   1                  0.00000     1.76076   
    29. RY*(  12) C   1                  0.00000     0.49160   
    30. RY*(  13) C   1                  0.00000     1.36605   
    31. RY*(  14) C   1                  0.00000     2.65721   
    32. RY*(  15) C   1                  0.00000     0.90634   
    33. RY*(  16) C   1                  0.00000     2.94860   
    34. RY*(  17) C   1                  0.00000    20.62233   
    35. RY*(  18) C   1                  0.00000     2.94530   
    36. RY*(  19) C   1                  0.00000     1.36492   
    37. RY*(  20) C   1                  0.00000     2.65638   
    38. RY*(  21) C   1                  0.00000     1.97039   
    39. RY*(  22) C   1                  0.00000     2.50588   
    40. RY*(   1) F   2                  0.00031     2.76370   
    41. RY*(   2) F   2                  0.00031     0.93483   
    42. RY*(   3) F   2                  0.00010     1.23268   
    43. RY*(   4) F   2                  0.00007     2.16807   
    44. RY*(   5) F   2                  0.00001     1.63366   
    45. RY*(   6) F   2                  0.00002     2.61735   
    46. RY*(   7) F   2                  0.00001     0.67037   
    47. RY*(   8) F   2                  0.00001     1.45109   
    48. RY*(   9) F   2                  0.00000     5.33942   
    49. RY*(  10) F   2                  0.00000    66.38020   
    50. RY*(  11) F   2                  0.00000     1.53905   
    51. RY*(  12) F   2                  0.00000     5.59403   
    52. RY*(  13) F   2                  0.00000     1.27057   
    53. RY*(  14) F   2                  0.00000     8.99232   
    54. RY*(  15) F   2                  0.00001     2.06324   
    55. RY*(  16) F   2                  0.00000     8.94107   
    56. RY*(  17) F   2                  0.00001     2.19056   
    57. RY*(  18) F   2                  0.00000     9.04971   
    58. RY*(  19) F   2                  0.00000     5.71566   
    59. RY*(  20) F   2                  0.00000     8.86096   
    60. RY*(  21) F   2                  0.00001     2.23318   
    61. RY*(  22) F   2                  0.00000     8.87174   
    62. RY*(   1) F   3                  0.00031     2.76369   
    63. RY*(   2) F   3                  0.00031     0.93484   
    64. RY*(   3) F   3                  0.00010     1.23268   
    65. RY*(   4) F   3                  0.00007     2.16807   
    66. RY*(   5) F   3                  0.00002     2.10088   
    67. RY*(   6) F   3                  0.00000     5.50686   
    68. RY*(   7) F   3                  0.00001     1.60334   
    69. RY*(   8) F   3                  0.00001     2.08533   
    70. RY*(   9) F   3                  0.00000     5.67281   
    71. RY*(  10) F   3                  0.00001     0.67759   
    72. RY*(  11) F   3                  0.00000     1.54248   
    73. RY*(  12) F   3                  0.00000     5.57839   
    74. RY*(  13) F   3                  0.00000     1.20260   
    75. RY*(  14) F   3                  0.00000     9.04585   
    76. RY*(  15) F   3                  0.00001     2.16304   
    77. RY*(  16) F   3                  0.00000     9.02572   
    78. RY*(  17) F   3                  0.00000    66.41402   
    79. RY*(  18) F   3                  0.00000     8.96439   
    80. RY*(  19) F   3                  0.00001     1.84532   
    81. RY*(  20) F   3                  0.00000     8.85252   
    82. RY*(  21) F   3                  0.00001     2.15081   
    83. RY*(  22) F   3                  0.00000     8.98223   
    84. RY*(   1) F   4                  0.00031     2.76369   
    85. RY*(   2) F   4                  0.00031     0.93484   
    86. RY*(   3) F   4                  0.00010     1.23268   
    87. RY*(   4) F   4                  0.00007     2.16807   
    88. RY*(   5) F   4                  0.00002     2.10088   
    89. RY*(   6) F   4                  0.00000     5.50686   
    90. RY*(   7) F   4                  0.00001     1.60334   
    91. RY*(   8) F   4                  0.00001     2.08533   
    92. RY*(   9) F   4                  0.00000     5.67281   
    93. RY*(  10) F   4                  0.00001     0.67759   
    94. RY*(  11) F   4                  0.00000     1.54248   
    95. RY*(  12) F   4                  0.00000     5.57839   
    96. RY*(  13) F   4                  0.00000     1.20260   
    97. RY*(  14) F   4                  0.00000     9.04585   
    98. RY*(  15) F   4                  0.00001     2.16304   
    99. RY*(  16) F   4                  0.00000     9.02572   
   100. RY*(  17) F   4                  0.00000    66.41402   
   101. RY*(  18) F   4                  0.00000     8.96439   
   102. RY*(  19) F   4                  0.00001     1.84532   
   103. RY*(  20) F   4                  0.00000     8.85252   
   104. RY*(  21) F   4                  0.00001     2.15081   
   105. RY*(  22) F   4                  0.00000     8.98223   
   106. BD*(   1) C   1 - F   2          0.02743     0.23803   
   107. BD*(   1) C   1 - F   3          0.02743     0.23803   
   108. BD*(   1) C   1 - F   4          0.02743     0.23803   
       -------------------------------
              Total Lewis   15.70277  ( 98.1423%)
        Valence non-Lewis    0.27715  (  1.7322%)
        Rydberg non-Lewis    0.02008  (  0.1255%)
       -------------------------------
            Total unit  1   16.00000  (100.0000%)
           Charge unit  1    0.50000
 Leave Link  607 at Wed Sep  5 16:40:37 2018, MaxMem=   805306368 cpu:               4.8 elap:               0.6
 (Enter /home/g16/l9999.exe)
 1\1\GINC-PC2\Stability\UB3LYP\6-311+G(2d,p)\C1F3(2)\MASKER\05-Sep-2018
 \0\\#p b3lyp/6-311+g(2d,p) pop=(full,nboread) stable=opt g09def\\CF3-c
 1-1sp 1\\0,2\C,0,0.,0.,0.325941\F,0,0.,1.260582,-0.072431\F,0,1.091696
 ,-0.630291,-0.072431\F,0,-1.091696,-0.630291,-0.072431\\Version=ES64L-
 G16RevA.03\State=2-A1\HF=-337.6786022\S2=0.751694\S2-1=0.\S2A=0.750002
 \RMSD=8.572e-09\Dipole=0.,0.,0.11869\Quadrupole=-0.3206541,-0.3206541,
 0.6413082,0.,0.,0.\PG=C03V [C3(C1),3SGV(F1)]\\@


 THE THINKER DIES, BUT HIS THOUGHTS ARE BEYOND THE 
 REACH OF DESTRUCTION.  MEN ARE MORTAL; BUT IDEAS 
 ARE IMMORTAL.
                              -- WALTER LIPPMANN
 Job cpu time:       0 days  0 hours  0 minutes 49.0 seconds.
 Elapsed time:       0 days  0 hours  0 minutes  6.3 seconds.
 File lengths (MBytes):  RWF=     91 Int=      0 D2E=      0 Chk=      3 Scr=      1
 Normal termination of Gaussian 16 at Wed Sep  5 16:40:37 2018.
