 Entering Gaussian System, Link 0=g16
 Input=CF3-c1-1sp+.gjf
 Output=CF3-c1-1sp+.log
 Initial command:
 /home/g16/l1.exe "/home/masker/scratch/Gau-28284.inp" -scrdir="/home/masker/scratch/"
 Entering Link 1 = /home/g16/l1.exe PID=     28285.
  
 Copyright (c) 1988,1990,1992,1993,1995,1998,2003,2009,2016,
            Gaussian, Inc.  All Rights Reserved.
  
 This is part of the Gaussian(R) 16 program.  It is based on
 the Gaussian(R) 09 system (copyright 2009, Gaussian, Inc.),
 the Gaussian(R) 03 system (copyright 2003, Gaussian, Inc.),
 the Gaussian(R) 98 system (copyright 1998, Gaussian, Inc.),
 the Gaussian(R) 94 system (copyright 1995, Gaussian, Inc.),
 the Gaussian 92(TM) system (copyright 1992, Gaussian, Inc.),
 the Gaussian 90(TM) system (copyright 1990, Gaussian, Inc.),
 the Gaussian 88(TM) system (copyright 1988, Gaussian, Inc.),
 the Gaussian 86(TM) system (copyright 1986, Carnegie Mellon
 University), and the Gaussian 82(TM) system (copyright 1983,
 Carnegie Mellon University). Gaussian is a federally registered
 trademark of Gaussian, Inc.
  
 This software contains proprietary and confidential information,
 including trade secrets, belonging to Gaussian, Inc.
  
 This software is provided under written license and may be
 used, copied, transmitted, or stored only in accord with that
 written license.
  
 The following legend is applicable only to US Government
 contracts under FAR:
  
                    RESTRICTED RIGHTS LEGEND
  
 Use, reproduction and disclosure by the US Government is
 subject to restrictions as set forth in subparagraphs (a)
 and (c) of the Commercial Computer Software - Restricted
 Rights clause in FAR 52.227-19.
  
 Gaussian, Inc.
 340 Quinnipiac St., Bldg. 40, Wallingford CT 06492
  
  
 ---------------------------------------------------------------
 Warning -- This program may not be used in any manner that
 competes with the business of Gaussian, Inc. or will provide
 assistance to any competitor of Gaussian, Inc.  The licensee
 of this program is prohibited from giving any competitor of
 Gaussian, Inc. access to this program.  By using this program,
 the user acknowledges that Gaussian, Inc. is engaged in the
 business of creating and licensing software in the field of
 computational chemistry and represents and warrants to the
 licensee that it is not a competitor of Gaussian, Inc. and that
 it will not use this program in any manner prohibited above.
 ---------------------------------------------------------------
  

 Cite this work as:
 Gaussian 16, Revision A.03,
 M. J. Frisch, G. W. Trucks, H. B. Schlegel, G. E. Scuseria, 
 M. A. Robb, J. R. Cheeseman, G. Scalmani, V. Barone, 
 G. A. Petersson, H. Nakatsuji, X. Li, M. Caricato, A. V. Marenich, 
 J. Bloino, B. G. Janesko, R. Gomperts, B. Mennucci, H. P. Hratchian, 
 J. V. Ortiz, A. F. Izmaylov, J. L. Sonnenberg, D. Williams-Young, 
 F. Ding, F. Lipparini, F. Egidi, J. Goings, B. Peng, A. Petrone, 
 T. Henderson, D. Ranasinghe, V. G. Zakrzewski, J. Gao, N. Rega, 
 G. Zheng, W. Liang, M. Hada, M. Ehara, K. Toyota, R. Fukuda, 
 J. Hasegawa, M. Ishida, T. Nakajima, Y. Honda, O. Kitao, H. Nakai, 
 T. Vreven, K. Throssell, J. A. Montgomery, Jr., J. E. Peralta, 
 F. Ogliaro, M. J. Bearpark, J. J. Heyd, E. N. Brothers, K. N. Kudin, 
 V. N. Staroverov, T. A. Keith, R. Kobayashi, J. Normand, 
 K. Raghavachari, A. P. Rendell, J. C. Burant, S. S. Iyengar, 
 J. Tomasi, M. Cossi, J. M. Millam, M. Klene, C. Adamo, R. Cammi, 
 J. W. Ochterski, R. L. Martin, K. Morokuma, O. Farkas, 
 J. B. Foresman, and D. J. Fox, Gaussian, Inc., Wallingford CT, 2016.
 
 ******************************************
 Gaussian 16:  ES64L-G16RevA.03 25-Dec-2016
                 5-Sep-2018 
 ******************************************
 %nprocshared=8
 Will use up to    8 processors via shared memory.
 %mem=6GB
 %chk=CF3-c1-1sp+.chk
 -----------------------------------------------------------
 #p b3lyp/6-311+g(2d,p) pop=(full,nboread) stable=opt g09def
 -----------------------------------------------------------
 1/38=1,158=3,167=1,172=1/1;
 2/12=2,17=6,18=5,40=1/2;
 3/5=4,6=6,7=112,11=2,25=1,27=10,30=1,74=-5,75=-4,158=3/1,2,3;
 4/60=-1/1;
 5/5=2,38=5,87=10/2;
 6/7=3,28=1,40=2,87=10/1,7;
 8/6=1,10=90,11=11,87=10/1;
 9/8=-3,42=1,46=1,87=10/14;
 5/5=2,8=3,17=40,38=5,87=10/8(-2);
 6/7=3,28=1,40=2,87=10/1,7;
 99/5=1,9=1/99;
 Using 2006 physical constants.
 Leave Link    1 at Wed Sep  5 16:47:14 2018, MaxMem=   805306368 cpu:               0.4 elap:               0.0
 (Enter /home/g16/l101.exe)
 -------------
 CF3-c1-1sp+ 1
 -------------
 Symbolic Z-matrix:
 Charge =  1 Multiplicity = 1
 C                     0.        0.        0.32594 
 F                     0.        1.26058  -0.07243 
 F                     1.0917   -0.63029  -0.07243 
 F                    -1.0917   -0.63029  -0.07243 
 
 ITRead=  0  0  0  0
 MicOpt= -1 -1 -1 -1
 NAtoms=      4 NQM=        4 NQMF=       0 NMMI=      0 NMMIF=      0
                NMic=       0 NMicF=      0.
                    Isotopes and Nuclear Properties:
 (Nuclear quadrupole moments (NQMom) in fm**2, nuclear magnetic moments (NMagM)
  in nuclear magnetons)

  Atom         1           2           3           4
 IAtWgt=          12          19          19          19
 AtmWgt=  12.0000000  18.9984032  18.9984032  18.9984032
 NucSpn=           0           1           1           1
 AtZEff=  -0.0000000  -0.0000000  -0.0000000  -0.0000000
 NQMom=    0.0000000   0.0000000   0.0000000   0.0000000
 NMagM=    0.0000000   2.6288670   2.6288670   2.6288670
 AtZNuc=   6.0000000   9.0000000   9.0000000   9.0000000
 Leave Link  101 at Wed Sep  5 16:47:14 2018, MaxMem=   805306368 cpu:               0.3 elap:               0.0
 (Enter /home/g16/l202.exe)
                          Input orientation:                          
 ---------------------------------------------------------------------
 Center     Atomic      Atomic             Coordinates (Angstroms)
 Number     Number       Type             X           Y           Z
 ---------------------------------------------------------------------
      1          6           0        0.000000    0.000000    0.325941
      2          9           0        0.000000    1.260582   -0.072431
      3          9           0        1.091696   -0.630291   -0.072431
      4          9           0       -1.091696   -0.630291   -0.072431
 ---------------------------------------------------------------------
                    Distance matrix (angstroms):
                    1          2          3          4
     1  C    0.000000
     2  F    1.322031   0.000000
     3  F    1.322031   2.183392   0.000000
     4  F    1.322031   2.183392   2.183392   0.000000
 Stoichiometry    CF3(1+)
 Framework group  C3V[C3(C),3SGV(F)]
 Deg. of freedom     2
 Full point group                 C3V     NOp   6
 Largest Abelian subgroup         CS      NOp   2
 Largest concise Abelian subgroup CS      NOp   2
                         Standard orientation:                         
 ---------------------------------------------------------------------
 Center     Atomic      Atomic             Coordinates (Angstroms)
 Number     Number       Type             X           Y           Z
 ---------------------------------------------------------------------
      1          6           0        0.000000    0.000000    0.325941
      2          9           0        0.000000    1.260582   -0.072431
      3          9           0        1.091696   -0.630291   -0.072431
      4          9           0       -1.091696   -0.630291   -0.072431
 ---------------------------------------------------------------------
 Rotational constants (GHZ):          10.7853803          10.7853803           5.5800313
 Leave Link  202 at Wed Sep  5 16:47:14 2018, MaxMem=   805306368 cpu:               0.0 elap:               0.0
 (Enter /home/g16/l301.exe)
 Standard basis: 6-311+G(2d,p) (5D, 7F)
 Ernie: Thresh=  0.10000D-02 Tol=  0.10000D-05 Strict=F.
 There are    71 symmetry adapted cartesian basis functions of A'  symmetry.
 There are    45 symmetry adapted cartesian basis functions of A"  symmetry.
 There are    65 symmetry adapted basis functions of A'  symmetry.
 There are    43 symmetry adapted basis functions of A"  symmetry.
   108 basis functions,   168 primitive gaussians,   116 cartesian basis functions
    16 alpha electrons       16 beta electrons
       nuclear repulsion energy       123.7393067602 Hartrees.
 IExCor=  402 DFT=T Ex+Corr=B3LYP ExCW=0 ScaHFX=  0.200000
 ScaDFX=  0.800000  0.720000  1.000000  0.810000 ScalE2=  1.000000  1.000000
 IRadAn=      4 IRanWt=     -1 IRanGd=            0 ICorTp=0 IEmpDi=  4
 NAtoms=    4 NActive=    4 NUniq=    2 SFac= 4.00D+00 NAtFMM=   60 NAOKFM=F Big=F
 Integral buffers will be    131072 words long.
 Raffenetti 2 integral format.
 Two-electron integral symmetry is turned on.
 Leave Link  301 at Wed Sep  5 16:47:14 2018, MaxMem=   805306368 cpu:               0.1 elap:               0.0
 (Enter /home/g16/l302.exe)
 NPDir=0 NMtPBC=     1 NCelOv=     1 NCel=       1 NClECP=     1 NCelD=      1
         NCelK=      1 NCelE2=     1 NClLst=     1 CellRange=     0.0.
 One-electron integrals computed using PRISM.
 One-electron integral symmetry used in STVInt
 NBasis=   108 RedAO= T EigKep=  1.87D-03  NBF=    65    43
 NBsUse=   108 1.00D-06 EigRej= -1.00D+00 NBFU=    65    43
 Precomputing XC quadrature grid using
 IXCGrd= 4 IRadAn=           4 IRanWt=          -1 IRanGd=           0 AccXCQ= 1.00D-10.
 Generated NRdTot=       0 NPtTot=           0 NUsed=           0 NTot=          32
 NSgBfM=   116   116   116   116   116 MxSgAt=     4 MxSgA2=     4.
 Leave Link  302 at Wed Sep  5 16:47:14 2018, MaxMem=   805306368 cpu:               0.5 elap:               0.1
 (Enter /home/g16/l303.exe)
 DipDrv:  MaxL=1.
 Leave Link  303 at Wed Sep  5 16:47:14 2018, MaxMem=   805306368 cpu:               0.1 elap:               0.0
 (Enter /home/g16/l401.exe)
 ExpMin= 4.38D-02 ExpMax= 1.14D+04 ExpMxC= 1.72D+03 IAcc=2 IRadAn=         4 AccDes= 0.00D+00
 Harris functional with IExCor=  402 and IRadAn=      -1 diagonalized for initial guess.
 HarFok:  IExCor=  402 AccDes= 0.00D+00 IRadAn=        -1 IDoV= 1 UseB2=F ITyADJ=14
 ICtDFT=  3500011 ScaDFX=  1.000000  1.000000  1.000000  1.000000
 FoFCou: FMM=F IPFlag=           0 FMFlag=      100000 FMFlg1=           0
         NFxFlg=           0 DoJE=T BraDBF=F KetDBF=T FulRan=T
         wScrn=  0.000000 ICntrl=       500 IOpCl=  0 I1Cent=   200000004 NGrid=           0
         NMat0=    1 NMatS0=      1 NMatT0=    0 NMatD0=    1 NMtDS0=    0 NMtDT0=    0
 Petite list used in FoFCou.
 Harris En= -337.456284902515    
 JPrj=0 DoOrth=F DoCkMO=F.
 Initial guess orbital symmetries:
       Occupied  (A1) (E) (E) (A1) (A1) (E) (E) (A1) (E) (E) (A1)
                 (E) (E) (E) (E) (A2)
       Virtual   (A1) (A1) (E) (E) (A1) (A1) (E) (E) (E) (E) (A1)
                 (E) (E) (A1) (A2) (E) (E) (A1) (E) (E) (A1) (E)
                 (E) (A1) (E) (E) (A1) (E) (E) (E) (E) (A1) (E)
                 (E) (A1) (A2) (E) (E) (E) (E) (A2) (E) (E) (A1)
                 (A1) (E) (E) (A2) (E) (E) (A1) (E) (E) (E) (E)
                 (A1) (A1) (E) (E) (E) (E) (A1) (E) (E) (E) (E)
                 (A1) (E) (E) (A2) (A1) (E) (E) (A2) (E) (E) (A1)
                 (E) (E) (A2) (E) (E) (A1) (E) (E) (A1) (E) (E)
                 (A1) (E) (E) (A1)
 The electronic state of the initial guess is 1-A1.
 Leave Link  401 at Wed Sep  5 16:47:14 2018, MaxMem=   805306368 cpu:               0.6 elap:               0.1
 (Enter /home/g16/l502.exe)
 Keep R1 ints in memory in symmetry-blocked form, NReq=26025436.
 FoFCou: FMM=F IPFlag=           0 FMFlag=           0 FMFlg1=           0
         NFxFlg=           0 DoJE=F BraDBF=F KetDBF=F FulRan=T
         wScrn=  0.000000 ICntrl=       600 IOpCl=  0 I1Cent=           0 NGrid=           0
         NMat0=    1 NMatS0=   5886 NMatT0=    0 NMatD0=    1 NMtDS0=    0 NMtDT0=    0
 Petite list used in FoFCou.
 Closed shell SCF:
 Using DIIS extrapolation, IDIIS=  1040.
 NGot=   805306368 LenX=   796578092 LenY=   796564195
 Requested convergence on RMS density matrix=1.00D-08 within 128 cycles.
 Requested convergence on MAX density matrix=1.00D-06.
 Requested convergence on             energy=1.00D-06.
 No special actions if energy rises.

 Cycle   1  Pass 1  IDiag  1:
 E= -337.123832876703    
 DIIS: error= 4.76D-02 at cycle   1 NSaved=   1.
 NSaved= 1 IEnMin= 1 EnMin= -337.123832876703     IErMin= 1 ErrMin= 4.76D-02
 ErrMax= 4.76D-02  0.00D+00 EMaxC= 1.00D-01 BMatC= 1.64D-01 BMatP= 1.64D-01
 IDIUse=3 WtCom= 5.24D-01 WtEn= 4.76D-01
 Coeff-Com:  0.100D+01
 Coeff-En:   0.100D+01
 Coeff:      0.100D+01
 Gap=     0.092 Goal=   None    Shift=    0.000
 GapD=    0.092 DampG=0.500 DampE=0.500 DampFc=0.2500 IDamp=-1.
 Damping current iteration by 2.50D-01
 RMSDP=5.58D-03 MaxDP=2.69D-01              OVMax= 3.45D-01

 Cycle   2  Pass 1  IDiag  1:
 E= -337.169971799379     Delta-E=       -0.046138922676 Rises=F Damp=T
 DIIS: error= 1.54D-02 at cycle   2 NSaved=   2.
 NSaved= 2 IEnMin= 2 EnMin= -337.169971799379     IErMin= 2 ErrMin= 1.54D-02
 ErrMax= 1.54D-02  0.00D+00 EMaxC= 1.00D-01 BMatC= 2.23D-02 BMatP= 1.64D-01
 IDIUse=3 WtCom= 8.46D-01 WtEn= 1.54D-01
 Coeff-Com: -0.350D+00 0.135D+01
 Coeff-En:   0.000D+00 0.100D+01
 Coeff:     -0.296D+00 0.130D+01
 Gap=     0.216 Goal=   None    Shift=    0.000
 RMSDP=1.33D-03 MaxDP=3.16D-02 DE=-4.61D-02 OVMax= 2.58D-01

 Cycle   3  Pass 1  IDiag  1:
 E= -337.259209621397     Delta-E=       -0.089237822018 Rises=F Damp=F
 DIIS: error= 1.16D-02 at cycle   3 NSaved=   3.
 NSaved= 3 IEnMin= 3 EnMin= -337.259209621397     IErMin= 3 ErrMin= 1.16D-02
 ErrMax= 1.16D-02  0.00D+00 EMaxC= 1.00D-01 BMatC= 7.15D-03 BMatP= 2.23D-02
 IDIUse=3 WtCom= 8.84D-01 WtEn= 1.16D-01
 Coeff-Com: -0.211D+00 0.613D+00 0.598D+00
 Coeff-En:   0.000D+00 0.000D+00 0.100D+01
 Coeff:     -0.187D+00 0.542D+00 0.645D+00
 Gap=     0.239 Goal=   None    Shift=    0.000
 RMSDP=3.63D-04 MaxDP=9.42D-03 DE=-8.92D-02 OVMax= 1.00D-02

 Cycle   4  Pass 1  IDiag  1:
 E= -337.262815664871     Delta-E=       -0.003606043474 Rises=F Damp=F
 DIIS: error= 1.60D-03 at cycle   4 NSaved=   4.
 NSaved= 4 IEnMin= 4 EnMin= -337.262815664871     IErMin= 4 ErrMin= 1.60D-03
 ErrMax= 1.60D-03  0.00D+00 EMaxC= 1.00D-01 BMatC= 2.10D-04 BMatP= 7.15D-03
 IDIUse=3 WtCom= 9.84D-01 WtEn= 1.60D-02
 Coeff-Com: -0.526D-01 0.770D-01 0.136D+00 0.839D+00
 Coeff-En:   0.000D+00 0.000D+00 0.000D+00 0.100D+01
 Coeff:     -0.518D-01 0.758D-01 0.134D+00 0.842D+00
 Gap=     0.238 Goal=   None    Shift=    0.000
 RMSDP=6.38D-05 MaxDP=3.37D-03 DE=-3.61D-03 OVMax= 2.70D-03

 Cycle   5  Pass 1  IDiag  1:
 E= -337.262953659201     Delta-E=       -0.000137994330 Rises=F Damp=F
 DIIS: error= 2.68D-04 at cycle   5 NSaved=   5.
 NSaved= 5 IEnMin= 5 EnMin= -337.262953659201     IErMin= 5 ErrMin= 2.68D-04
 ErrMax= 2.68D-04  0.00D+00 EMaxC= 1.00D-01 BMatC= 5.32D-06 BMatP= 2.10D-04
 IDIUse=3 WtCom= 9.97D-01 WtEn= 2.68D-03
 Coeff-Com: -0.968D-02 0.117D-01 0.732D-02 0.174D-01 0.973D+00
 Coeff-En:   0.000D+00 0.000D+00 0.000D+00 0.000D+00 0.100D+01
 Coeff:     -0.966D-02 0.117D-01 0.730D-02 0.174D-01 0.973D+00
 Gap=     0.238 Goal=   None    Shift=    0.000
 RMSDP=8.61D-06 MaxDP=4.28D-04 DE=-1.38D-04 OVMax= 3.40D-04

 Cycle   6  Pass 1  IDiag  1:
 E= -337.262957053319     Delta-E=       -0.000003394118 Rises=F Damp=F
 DIIS: error= 6.08D-05 at cycle   6 NSaved=   6.
 NSaved= 6 IEnMin= 6 EnMin= -337.262957053319     IErMin= 6 ErrMin= 6.08D-05
 ErrMax= 6.08D-05  0.00D+00 EMaxC= 1.00D-01 BMatC= 3.25D-07 BMatP= 5.32D-06
 IDIUse=1 WtCom= 1.00D+00 WtEn= 0.00D+00
 Coeff-Com: -0.275D-02 0.328D-02-0.146D-02-0.212D-01 0.272D+00 0.750D+00
 Coeff:     -0.275D-02 0.328D-02-0.146D-02-0.212D-01 0.272D+00 0.750D+00
 Gap=     0.238 Goal=   None    Shift=    0.000
 RMSDP=2.23D-06 MaxDP=9.83D-05 DE=-3.39D-06 OVMax= 1.19D-04

 Cycle   7  Pass 1  IDiag  1:
 E= -337.262957284823     Delta-E=       -0.000000231503 Rises=F Damp=F
 DIIS: error= 1.30D-05 at cycle   7 NSaved=   7.
 NSaved= 7 IEnMin= 7 EnMin= -337.262957284823     IErMin= 7 ErrMin= 1.30D-05
 ErrMax= 1.30D-05  0.00D+00 EMaxC= 1.00D-01 BMatC= 1.59D-08 BMatP= 3.25D-07
 IDIUse=1 WtCom= 1.00D+00 WtEn= 0.00D+00
 Coeff-Com: -0.170D-03 0.248D-03-0.307D-03-0.130D-02-0.247D-01-0.200D-01
 Coeff-Com:  0.105D+01
 Coeff:     -0.170D-03 0.248D-03-0.307D-03-0.130D-02-0.247D-01-0.200D-01
 Coeff:      0.105D+01
 Gap=     0.238 Goal=   None    Shift=    0.000
 RMSDP=5.37D-07 MaxDP=2.79D-05 DE=-2.32D-07 OVMax= 2.30D-05

 Cycle   8  Pass 1  IDiag  1:
 E= -337.262957295724     Delta-E=       -0.000000010902 Rises=F Damp=F
 DIIS: error= 1.06D-06 at cycle   8 NSaved=   8.
 NSaved= 8 IEnMin= 8 EnMin= -337.262957295724     IErMin= 8 ErrMin= 1.06D-06
 ErrMax= 1.06D-06  0.00D+00 EMaxC= 1.00D-01 BMatC= 8.45D-11 BMatP= 1.59D-08
 IDIUse=1 WtCom= 1.00D+00 WtEn= 0.00D+00
 Coeff-Com: -0.689D-05 0.120D-04-0.499D-04-0.102D-03-0.477D-02-0.132D-01
 Coeff-Com:  0.112D+00 0.906D+00
 Coeff:     -0.689D-05 0.120D-04-0.499D-04-0.102D-03-0.477D-02-0.132D-01
 Coeff:      0.112D+00 0.906D+00
 Gap=     0.238 Goal=   None    Shift=    0.000
 RMSDP=3.94D-08 MaxDP=1.27D-06 DE=-1.09D-08 OVMax= 1.94D-06

 Cycle   9  Pass 1  IDiag  1:
 E= -337.262957295778     Delta-E=       -0.000000000054 Rises=F Damp=F
 DIIS: error= 9.77D-08 at cycle   9 NSaved=   9.
 NSaved= 9 IEnMin= 9 EnMin= -337.262957295778     IErMin= 9 ErrMin= 9.77D-08
 ErrMax= 9.77D-08  0.00D+00 EMaxC= 1.00D-01 BMatC= 1.50D-12 BMatP= 8.45D-11
 IDIUse=1 WtCom= 1.00D+00 WtEn= 0.00D+00
 Coeff-Com:  0.224D-05-0.281D-05 0.804D-05 0.500D-04 0.394D-03-0.112D-02
 Coeff-Com: -0.257D-01 0.555D-01 0.971D+00
 Coeff:      0.224D-05-0.281D-05 0.804D-05 0.500D-04 0.394D-03-0.112D-02
 Coeff:     -0.257D-01 0.555D-01 0.971D+00
 Gap=     0.238 Goal=   None    Shift=    0.000
 RMSDP=7.03D-09 MaxDP=3.63D-07 DE=-5.40D-11 OVMax= 3.37D-07

 SCF Done:  E(RB3LYP) =  -337.262957296     A.U. after    9 cycles
            NFock=  9  Conv=0.70D-08     -V/T= 2.0041
 KE= 3.358836069014D+02 PE=-1.038770817256D+03 EE= 2.418849462989D+02
 Leave Link  502 at Wed Sep  5 16:47:14 2018, MaxMem=   805306368 cpu:               4.1 elap:               0.5
 (Enter /home/g16/l601.exe)
 Copying SCF densities to generalized density rwf, IOpCl= 0 IROHF=0.

 **********************************************************************

            Population analysis using the SCF density.

 **********************************************************************

 Orbital symmetries:
       Occupied  (E) (E) (A1) (A1) (A1) (E) (E) (A1) (E) (E) (A1)
                 (E) (E) (E) (E) (A2)
       Virtual   (A1) (A1) (E) (E) (A1) (A1) (E) (E) (E) (E) (E)
                 (E) (A1) (A1) (A2) (E) (E) (A1) (E) (E) (A1) (E)
                 (E) (A1) (E) (E) (A1) (E) (E) (E) (E) (A1) (E)
                 (E) (A1) (A2) (E) (E) (E) (E) (A2) (A1) (E) (E)
                 (A1) (E) (E) (A2) (E) (E) (A1) (E) (E) (E) (E)
                 (A1) (A1) (E) (E) (E) (E) (A1) (E) (E) (E) (E)
                 (A1) (E) (E) (A2) (A1) (E) (E) (A2) (E) (E) (A1)
                 (E) (E) (A2) (E) (E) (A1) (E) (E) (A1) (E) (E)
                 (A1) (E) (E) (A1)
 The electronic state is 1-A1.
 Alpha  occ. eigenvalues --  -25.10779 -25.10779 -25.10778 -10.87224  -1.69397
 Alpha  occ. eigenvalues --   -1.60741  -1.60741  -1.05999  -0.96442  -0.96442
 Alpha  occ. eigenvalues --   -0.91803  -0.82792  -0.82792  -0.79722  -0.79722
 Alpha  occ. eigenvalues --   -0.77501
 Alpha virt. eigenvalues --   -0.53666  -0.20234  -0.19092  -0.19092  -0.14200
 Alpha virt. eigenvalues --   -0.11788  -0.10406  -0.10406   0.00826   0.00826
 Alpha virt. eigenvalues --    0.01531   0.01531   0.01643   0.06021   0.11303
 Alpha virt. eigenvalues --    0.11794   0.11794   0.12228   0.16526   0.16526
 Alpha virt. eigenvalues --    0.24912   0.30544   0.30544   0.43783   0.49783
 Alpha virt. eigenvalues --    0.49783   0.67240   0.80193   0.80193   0.96407
 Alpha virt. eigenvalues --    0.96407   1.00364   1.00715   1.00715   1.08530
 Alpha virt. eigenvalues --    1.09155   1.14890   1.14890   1.49027   1.49027
 Alpha virt. eigenvalues --    1.61805   1.61889   1.62481   1.62481   1.67499
 Alpha virt. eigenvalues --    1.69868   1.69868   1.78240   1.94389   1.94389
 Alpha virt. eigenvalues --    2.02087   2.21182   2.21182   2.35623   2.35623
 Alpha virt. eigenvalues --    2.45035   2.68055   2.89014   2.89014   3.03376
 Alpha virt. eigenvalues --    3.03376   3.06300   3.76713   3.76713   5.88472
 Alpha virt. eigenvalues --    5.88472   5.90183   5.96011   5.96011   5.97745
 Alpha virt. eigenvalues --    6.00942   6.36994   6.36994   8.62410   8.64114
 Alpha virt. eigenvalues --    8.64114   8.64626   8.73892   8.73892   8.75429
 Alpha virt. eigenvalues --    8.79459   8.79459   8.99231   9.16304   9.16304
 Alpha virt. eigenvalues --    9.19854   9.37334   9.37334  23.42221  66.37179
 Alpha virt. eigenvalues --   66.37179  66.43950
     Molecular Orbital Coefficients:
                           1         2         3         4         5
                        (E)--O    (E)--O    (A1)--O   (A1)--O   (A1)--O
     Eigenvalues --   -25.10779 -25.10779 -25.10778 -10.87224  -1.69397
   1 1   C  1S         -0.00000   0.00000   0.00006   0.56357  -0.06022
   2        2S          0.00000   0.00000  -0.00023   0.46327  -0.09215
   3        2PX         0.00000  -0.00014   0.00000   0.00000   0.00000
   4        2PY        -0.00014   0.00000  -0.00000  -0.00000  -0.00000
   5        2PZ        -0.00000   0.00000   0.00007   0.00091  -0.03126
   6        3S         -0.00000   0.00000   0.00024   0.01691   0.26107
   7        3PX         0.00000   0.00199   0.00000   0.00000   0.00000
   8        3PY         0.00199   0.00000   0.00000  -0.00000   0.00000
   9        3PZ         0.00000   0.00000  -0.00099  -0.00275  -0.03222
  10        4S         -0.00000   0.00000   0.01346  -0.00820  -0.12448
  11        4PX         0.00000   0.00293   0.00000   0.00000   0.00000
  12        4PY         0.00293   0.00000   0.00000  -0.00000   0.00000
  13        4PZ         0.00000   0.00000  -0.00334   0.00068   0.04545
  14        5S          0.00000   0.00000  -0.00072  -0.00047   0.00259
  15        5PX         0.00000  -0.00066   0.00000   0.00000   0.00000
  16        5PY        -0.00066   0.00000  -0.00000  -0.00000   0.00000
  17        5PZ        -0.00000   0.00000   0.00019  -0.00013   0.00009
  18        6D 0        0.00000   0.00000  -0.00004  -0.00071  -0.01173
  19        6D+1        0.00000  -0.00003   0.00000   0.00000   0.00000
  20        6D-1       -0.00003   0.00000  -0.00000  -0.00000   0.00000
  21        6D+2       -0.00016   0.00000  -0.00000  -0.00000   0.00000
  22        6D-2        0.00000  -0.00016   0.00000   0.00000   0.00000
  23        7D 0        0.00000   0.00000  -0.00125  -0.00076   0.00868
  24        7D+1        0.00000  -0.00105   0.00000   0.00000   0.00000
  25        7D-1       -0.00105   0.00000  -0.00000   0.00000  -0.00000
  26        7D+2       -0.00087   0.00000  -0.00000   0.00000  -0.00000
  27        7D-2        0.00000  -0.00087   0.00000   0.00000   0.00000
  28 2   F  1S          0.44718   0.00000   0.31621  -0.00004  -0.06437
  29        2S          0.38532   0.00000   0.27244  -0.00011  -0.10396
  30        2PX         0.00000   0.00000   0.00000   0.00000   0.00000
  31        2PY        -0.00086   0.00000  -0.00059  -0.00018  -0.03410
  32        2PZ         0.00035   0.00000   0.00024   0.00003   0.00868
  33        3S          0.01015   0.00000   0.00746   0.00109   0.30708
  34        3PX         0.00000   0.00001   0.00000   0.00000   0.00000
  35        3PY         0.00013   0.00000  -0.00002   0.00002  -0.05497
  36        3PZ        -0.00012   0.00000  -0.00005   0.00005   0.01470
  37        4S         -0.00810   0.00000  -0.00687  -0.00319   0.25365
  38        4PX         0.00000  -0.00037   0.00000   0.00000   0.00000
  39        4PY         0.00206   0.00000   0.00227   0.00263  -0.05158
  40        4PZ        -0.00042   0.00000  -0.00051  -0.00089   0.01311
  41        5S          0.00258   0.00000  -0.00085   0.00233   0.01658
  42        5PX         0.00000  -0.00039   0.00000   0.00000   0.00000
  43        5PY        -0.00077   0.00000   0.00066  -0.00177  -0.00684
  44        5PZ        -0.00016   0.00000   0.00005   0.00064  -0.00357
  45        6D 0       -0.00007   0.00000  -0.00005  -0.00012  -0.00075
  46        6D+1        0.00000  -0.00001   0.00000   0.00000   0.00000
  47        6D-1       -0.00010   0.00000  -0.00007  -0.00014  -0.00092
  48        6D+2       -0.00017   0.00000  -0.00012  -0.00024  -0.00170
  49        6D-2        0.00000  -0.00003   0.00000   0.00000   0.00000
  50        7D 0        0.00024   0.00000   0.00020   0.00058  -0.00390
  51        7D+1        0.00000   0.00003   0.00000   0.00000   0.00000
  52        7D-1        0.00027   0.00000   0.00020   0.00062  -0.00610
  53        7D+2        0.00051   0.00000   0.00033   0.00107  -0.00938
  54        7D-2        0.00000   0.00016   0.00000   0.00000   0.00000
  55 3   F  1S         -0.22359   0.38727   0.31621  -0.00004  -0.06437
  56        2S         -0.19266   0.33370   0.27244  -0.00011  -0.10396
  57        2PX         0.00037  -0.00064  -0.00051  -0.00016  -0.02953
  58        2PY        -0.00021   0.00037   0.00029   0.00009   0.01705
  59        2PZ        -0.00018   0.00031   0.00024   0.00003   0.00868
  60        3S         -0.00507   0.00879   0.00746   0.00109   0.30708
  61        3PX        -0.00005   0.00010  -0.00001   0.00002  -0.04761
  62        3PY         0.00004  -0.00005   0.00001  -0.00001   0.02749
  63        3PZ         0.00006  -0.00010  -0.00005   0.00005   0.01470
  64        4S          0.00405  -0.00702  -0.00687  -0.00319   0.25365
  65        4PX        -0.00105   0.00145   0.00196   0.00227  -0.04467
  66        4PY         0.00024  -0.00105  -0.00113  -0.00131   0.02579
  67        4PZ         0.00021  -0.00036  -0.00051  -0.00089   0.01311
  68        5S         -0.00129   0.00224  -0.00085   0.00233   0.01658
  69        5PX         0.00017  -0.00068   0.00057  -0.00153  -0.00592
  70        5PY        -0.00048   0.00017  -0.00033   0.00088   0.00342
  71        5PZ         0.00008  -0.00014   0.00005   0.00064  -0.00357
  72        6D 0        0.00003  -0.00006  -0.00005  -0.00012  -0.00075
  73        6D+1        0.00004  -0.00007  -0.00006  -0.00012  -0.00079
  74        6D-1       -0.00003   0.00004   0.00004   0.00007   0.00046
  75        6D+2       -0.00007   0.00006   0.00006   0.00012   0.00085
  76        6D-2        0.00006  -0.00013  -0.00010  -0.00020  -0.00147
  77        7D 0       -0.00012   0.00020   0.00020   0.00058  -0.00390
  78        7D+1       -0.00010   0.00021   0.00018   0.00054  -0.00528
  79        7D-1        0.00009  -0.00010  -0.00010  -0.00031   0.00305
  80        7D+2        0.00025  -0.00015  -0.00017  -0.00053   0.00469
  81        7D-2       -0.00015   0.00042   0.00029   0.00093  -0.00812
  82 4   F  1S         -0.22359  -0.38727   0.31621  -0.00004  -0.06437
  83        2S         -0.19266  -0.33370   0.27244  -0.00011  -0.10396
  84        2PX        -0.00037  -0.00064   0.00051   0.00016   0.02953
  85        2PY        -0.00021  -0.00037   0.00029   0.00009   0.01705
  86        2PZ        -0.00018  -0.00031   0.00024   0.00003   0.00868
  87        3S         -0.00507  -0.00879   0.00746   0.00109   0.30708
  88        3PX         0.00005   0.00010   0.00001  -0.00002   0.04761
  89        3PY         0.00004   0.00005   0.00001  -0.00001   0.02749
  90        3PZ         0.00006   0.00010  -0.00005   0.00005   0.01470
  91        4S          0.00405   0.00702  -0.00687  -0.00319   0.25365
  92        4PX         0.00105   0.00145  -0.00196  -0.00227   0.04467
  93        4PY         0.00024   0.00105  -0.00113  -0.00131   0.02579
  94        4PZ         0.00021   0.00036  -0.00051  -0.00089   0.01311
  95        5S         -0.00129  -0.00224  -0.00085   0.00233   0.01658
  96        5PX        -0.00017  -0.00068  -0.00057   0.00153   0.00592
  97        5PY        -0.00048  -0.00017  -0.00033   0.00088   0.00342
  98        5PZ         0.00008   0.00014   0.00005   0.00064  -0.00357
  99        6D 0        0.00003   0.00006  -0.00005  -0.00012  -0.00075
 100        6D+1       -0.00004  -0.00007   0.00006   0.00012   0.00079
 101        6D-1       -0.00003  -0.00004   0.00004   0.00007   0.00046
 102        6D+2       -0.00007  -0.00006   0.00006   0.00012   0.00085
 103        6D-2       -0.00006  -0.00013   0.00010   0.00020   0.00147
 104        7D 0       -0.00012  -0.00020   0.00020   0.00058  -0.00390
 105        7D+1        0.00010   0.00021  -0.00018  -0.00054   0.00528
 106        7D-1        0.00009   0.00010  -0.00010  -0.00031   0.00305
 107        7D+2        0.00025   0.00015  -0.00017  -0.00053   0.00469
 108        7D-2        0.00015   0.00042  -0.00029  -0.00093   0.00812
                           6         7         8         9        10
                        (E)--O    (E)--O    (A1)--O   (E)--O    (E)--O
     Eigenvalues --    -1.60741  -1.60741  -1.05999  -0.96442  -0.96442
   1 1   C  1S         -0.00000   0.00000  -0.08793   0.00000   0.00000
   2        2S         -0.00000   0.00000  -0.14008   0.00000   0.00000
   3        2PX         0.00000   0.08409   0.00000   0.00000   0.17331
   4        2PY         0.08409   0.00000  -0.00000  -0.17331   0.00000
   5        2PZ        -0.00000   0.00000  -0.01981  -0.00000   0.00000
   6        3S         -0.00000   0.00000   0.44734  -0.00000   0.00000
   7        3PX         0.00000   0.10059   0.00000   0.00000   0.25735
   8        3PY         0.10059   0.00000  -0.00000  -0.25735   0.00000
   9        3PZ        -0.00000   0.00000  -0.02642  -0.00000   0.00000
  10        4S          0.00000   0.00000   0.17535   0.00000   0.00000
  11        4PX         0.00000   0.00041   0.00000   0.00000   0.07588
  12        4PY         0.00041   0.00000  -0.00000  -0.07588   0.00000
  13        4PZ        -0.00000   0.00000   0.01497  -0.00000   0.00000
  14        5S          0.00000   0.00000  -0.02421   0.00000   0.00000
  15        5PX         0.00000   0.00855   0.00000   0.00000  -0.00080
  16        5PY         0.00855   0.00000   0.00000   0.00080   0.00000
  17        5PZ        -0.00000   0.00000   0.00867  -0.00000   0.00000
  18        6D 0       -0.00000   0.00000  -0.00684   0.00000   0.00000
  19        6D+1        0.00000  -0.01080   0.00000   0.00000  -0.00988
  20        6D-1       -0.01080   0.00000   0.00000   0.00988   0.00000
  21        6D+2       -0.01704   0.00000   0.00000   0.00905   0.00000
  22        6D-2        0.00000  -0.01704   0.00000   0.00000  -0.00905
  23        7D 0       -0.00000   0.00000   0.00176  -0.00000   0.00000
  24        7D+1        0.00000  -0.00526   0.00000   0.00000  -0.01302
  25        7D-1       -0.00526   0.00000   0.00000   0.01302   0.00000
  26        7D+2       -0.01031   0.00000   0.00000   0.00129   0.00000
  27        7D-2        0.00000  -0.01031   0.00000   0.00000  -0.00129
  28 2   F  1S         -0.10167   0.00000   0.03803  -0.03269   0.00000
  29        2S         -0.16471   0.00000   0.06239  -0.05363   0.00000
  30        2PX         0.00000   0.00659   0.00000   0.00000   0.09383
  31        2PY        -0.03651   0.00000  -0.11938   0.17915   0.00000
  32        2PZ         0.01370   0.00000   0.03386  -0.07414   0.00000
  33        3S          0.49506   0.00000  -0.19850   0.17048   0.00000
  34        3PX         0.00000   0.01014   0.00000   0.00000   0.13669
  35        3PY        -0.06081   0.00000  -0.17284   0.26006   0.00000
  36        3PZ         0.02297   0.00000   0.04910  -0.10824   0.00000
  37        4S          0.36887   0.00000  -0.18373   0.18937   0.00000
  38        4PX         0.00000   0.00677   0.00000   0.00000   0.09969
  39        4PY        -0.04141   0.00000  -0.11206   0.16399   0.00000
  40        4PZ         0.01424   0.00000   0.03314  -0.07445   0.00000
  41        5S         -0.04721   0.00000  -0.00954   0.03447   0.00000
  42        5PX         0.00000   0.00474   0.00000   0.00000  -0.00142
  43        5PY         0.01743   0.00000   0.00711  -0.00237   0.00000
  44        5PZ        -0.00138   0.00000  -0.00803   0.00306   0.00000
  45        6D 0       -0.00054   0.00000  -0.00150   0.00177   0.00000
  46        6D+1        0.00000   0.00002   0.00000   0.00000   0.00060
  47        6D-1       -0.00151   0.00000  -0.00161   0.00287   0.00000
  48        6D+2       -0.00202   0.00000  -0.00279   0.00392   0.00000
  49        6D-2        0.00000  -0.00068   0.00000   0.00000  -0.00241
  50        7D 0       -0.00384   0.00000  -0.00432   0.00425   0.00000
  51        7D+1        0.00000   0.00077   0.00000   0.00000   0.00440
  52        7D-1       -0.00778   0.00000  -0.00596   0.01082   0.00000
  53        7D+2       -0.01081   0.00000  -0.00966   0.01053   0.00000
  54        7D-2        0.00000  -0.00131   0.00000   0.00000  -0.01082
  55 3   F  1S          0.05083  -0.08805   0.03803   0.01635   0.02831
  56        2S          0.08236  -0.14265   0.06239   0.02681   0.04644
  57        2PX         0.01866  -0.02574  -0.10339  -0.11820  -0.11091
  58        2PY        -0.00419   0.01866   0.05969  -0.02558   0.11820
  59        2PZ        -0.00685   0.01187   0.03386   0.03707   0.06421
  60        3S         -0.24753   0.42873  -0.19850  -0.08524  -0.14764
  61        3PX         0.03072  -0.04307  -0.14969  -0.17180  -0.16087
  62        3PY        -0.00760   0.03072   0.08642  -0.03750   0.17180
  63        3PZ        -0.01149   0.01989   0.04910   0.05412   0.09374
  64        4S         -0.18443   0.31945  -0.18373  -0.09468  -0.16400
  65        4PX         0.02086  -0.02936  -0.09704  -0.11418  -0.09807
  66        4PY        -0.00528   0.02086   0.05603  -0.03377   0.11418
  67        4PZ        -0.00712   0.01233   0.03314   0.03722   0.06447
  68        5S          0.02360  -0.04088  -0.00954  -0.01723  -0.02985
  69        5PX        -0.00549   0.01426   0.00615   0.00164   0.00143
  70        5PY         0.00791  -0.00549  -0.00355   0.00047  -0.00164
  71        5PZ         0.00069  -0.00119  -0.00803  -0.00153  -0.00265
  72        6D 0        0.00027  -0.00047  -0.00150  -0.00089  -0.00153
  73        6D+1        0.00067  -0.00113  -0.00140  -0.00150  -0.00200
  74        6D-1       -0.00036   0.00067   0.00081   0.00027   0.00150
  75        6D+2       -0.00101   0.00058   0.00140   0.00279   0.00066
  76        6D-2        0.00058  -0.00169  -0.00242  -0.00066  -0.00354
  77        7D 0        0.00192  -0.00332  -0.00432  -0.00213  -0.00368
  78        7D+1        0.00370  -0.00564  -0.00516  -0.00659  -0.00702
  79        7D-1       -0.00137   0.00370   0.00298  -0.00059   0.00659
  80        7D+2       -0.00368   0.00411   0.00483   0.01075  -0.00013
  81        7D-2        0.00411  -0.00843  -0.00836   0.00013  -0.01060
  82 4   F  1S          0.05083   0.08805   0.03803   0.01635  -0.02831
  83        2S          0.08236   0.14265   0.06239   0.02681  -0.04644
  84        2PX        -0.01866  -0.02574   0.10339   0.11820  -0.11091
  85        2PY        -0.00419  -0.01866   0.05969  -0.02558  -0.11820
  86        2PZ        -0.00685  -0.01187   0.03386   0.03707  -0.06421
  87        3S         -0.24753  -0.42873  -0.19850  -0.08524   0.14764
  88        3PX        -0.03072  -0.04307   0.14969   0.17180  -0.16087
  89        3PY        -0.00760  -0.03072   0.08642  -0.03750  -0.17180
  90        3PZ        -0.01149  -0.01989   0.04910   0.05412  -0.09374
  91        4S         -0.18443  -0.31945  -0.18373  -0.09468   0.16400
  92        4PX        -0.02086  -0.02936   0.09704   0.11418  -0.09807
  93        4PY        -0.00528  -0.02086   0.05603  -0.03377  -0.11418
  94        4PZ        -0.00712  -0.01233   0.03314   0.03722  -0.06447
  95        5S          0.02360   0.04088  -0.00954  -0.01723   0.02985
  96        5PX         0.00549   0.01426  -0.00615  -0.00164   0.00143
  97        5PY         0.00791   0.00549  -0.00355   0.00047   0.00164
  98        5PZ         0.00069   0.00119  -0.00803  -0.00153   0.00265
  99        6D 0        0.00027   0.00047  -0.00150  -0.00089   0.00153
 100        6D+1       -0.00067  -0.00113   0.00140   0.00150  -0.00200
 101        6D-1       -0.00036  -0.00067   0.00081   0.00027  -0.00150
 102        6D+2       -0.00101  -0.00058   0.00140   0.00279  -0.00066
 103        6D-2       -0.00058  -0.00169   0.00242   0.00066  -0.00354
 104        7D 0        0.00192   0.00332  -0.00432  -0.00213   0.00368
 105        7D+1       -0.00370  -0.00564   0.00516   0.00659  -0.00702
 106        7D-1       -0.00137  -0.00370   0.00298  -0.00059  -0.00659
 107        7D+2       -0.00368  -0.00411   0.00483   0.01075   0.00013
 108        7D-2       -0.00411  -0.00843   0.00836  -0.00013  -0.01060
                          11        12        13        14        15
                        (A1)--O   (E)--O    (E)--O    (E)--O    (E)--O
     Eigenvalues --    -0.91803  -0.82792  -0.82792  -0.79722  -0.79722
   1 1   C  1S         -0.02101  -0.00000   0.00000   0.00000   0.00000
   2        2S         -0.03313  -0.00000   0.00000   0.00000   0.00000
   3        2PX         0.00000   0.00000  -0.03108   0.00000  -0.01373
   4        2PY        -0.00000  -0.03108   0.00000  -0.01373   0.00000
   5        2PZ         0.15764  -0.00000   0.00000   0.00000   0.00000
   6        3S          0.10167   0.00000   0.00000  -0.00000   0.00000
   7        3PX         0.00000   0.00000  -0.03220   0.00000  -0.00831
   8        3PY        -0.00000  -0.03220   0.00000  -0.00831   0.00000
   9        3PZ         0.24320  -0.00000   0.00000   0.00000   0.00000
  10        4S          0.12521  -0.00000   0.00000   0.00000   0.00000
  11        4PX         0.00000   0.00000  -0.01426   0.00000   0.00177
  12        4PY        -0.00000  -0.01426   0.00000   0.00177   0.00000
  13        4PZ         0.10564   0.00000   0.00000  -0.00000   0.00000
  14        5S         -0.00853  -0.00000   0.00000   0.00000   0.00000
  15        5PX         0.00000   0.00000   0.01000   0.00000   0.02166
  16        5PY        -0.00000   0.01000   0.00000   0.02166   0.00000
  17        5PZ         0.01292   0.00000   0.00000  -0.00000   0.00000
  18        6D 0       -0.01014   0.00000   0.00000  -0.00000   0.00000
  19        6D+1        0.00000   0.00000  -0.00726   0.00000   0.01861
  20        6D-1        0.00000  -0.00726   0.00000   0.01861   0.00000
  21        6D+2        0.00000   0.02752   0.00000   0.01165   0.00000
  22        6D-2        0.00000   0.00000   0.02752   0.00000   0.01165
  23        7D 0       -0.02474   0.00000   0.00000  -0.00000   0.00000
  24        7D+1        0.00000   0.00000  -0.02224   0.00000   0.03508
  25        7D-1       -0.00000  -0.02224   0.00000   0.03508   0.00000
  26        7D+2        0.00000   0.05942   0.00000   0.01647   0.00000
  27        7D-2        0.00000   0.00000   0.05942   0.00000   0.01647
  28 2   F  1S         -0.00143  -0.00268   0.00000   0.00021   0.00000
  29        2S         -0.00234  -0.00434   0.00000   0.00047   0.00000
  30        2PX         0.00000   0.00000   0.21264   0.00000   0.10836
  31        2PY         0.05669   0.05032   0.00000   0.14934   0.00000
  32        2PZ         0.13704  -0.14845   0.00000   0.20181   0.00000
  33        3S          0.00761   0.01384   0.00000  -0.00214   0.00000
  34        3PX         0.00000   0.00000   0.30695   0.00000   0.15556
  35        3PY         0.08172   0.07541   0.00000   0.21829   0.00000
  36        3PZ         0.19888  -0.21662   0.00000   0.29075   0.00000
  37        4S          0.00283   0.02671   0.00000   0.00453   0.00000
  38        4PX         0.00000   0.00000   0.24005   0.00000   0.13308
  39        4PY         0.06298   0.04871   0.00000   0.16893   0.00000
  40        4PZ         0.15571  -0.16420   0.00000   0.24472   0.00000
  41        5S         -0.00365   0.03453   0.00000   0.03262   0.00000
  42        5PX         0.00000   0.00000   0.01004   0.00000  -0.00600
  43        5PY         0.00577  -0.01684   0.00000  -0.01786   0.00000
  44        5PZ        -0.00929  -0.00657   0.00000   0.01072   0.00000
  45        6D 0        0.00148  -0.00051   0.00000   0.00152   0.00000
  46        6D+1        0.00000   0.00000   0.00087   0.00000   0.00052
  47        6D-1       -0.00205   0.00212   0.00000  -0.00074   0.00000
  48        6D+2        0.00116   0.00104   0.00000   0.00163   0.00000
  49        6D-2        0.00000   0.00000  -0.00249   0.00000  -0.00054
  50        7D 0        0.00978  -0.00204   0.00000   0.01247   0.00000
  51        7D+1        0.00000   0.00000   0.00345   0.00000   0.00372
  52        7D-1       -0.01522   0.01248   0.00000  -0.01233   0.00000
  53        7D+2        0.00524   0.00512   0.00000   0.01239   0.00000
  54        7D-2        0.00000   0.00000  -0.01469   0.00000  -0.00885
  55 3   F  1S         -0.00143   0.00134  -0.00232  -0.00011   0.00018
  56        2S         -0.00234   0.00217  -0.00376  -0.00024   0.00041
  57        2PX         0.04910   0.07029   0.09090  -0.01774   0.13909
  58        2PY        -0.02835   0.17206   0.07029   0.11860  -0.01774
  59        2PZ         0.13704   0.07423  -0.12856  -0.10091   0.17477
  60        3S          0.00761  -0.00692   0.01198   0.00107  -0.00185
  61        3PX         0.07077   0.10026   0.13330  -0.02716   0.20261
  62        3PY        -0.04086   0.24907   0.10026   0.17124  -0.02716
  63        3PZ         0.19888   0.10831  -0.18760  -0.14537   0.25179
  64        4S          0.00283  -0.01335   0.02313  -0.00226   0.00392
  65        4PX         0.05454   0.08286   0.09654  -0.01553   0.15997
  66        4PY        -0.03149   0.19222   0.08286   0.14204  -0.01553
  67        4PZ         0.15571   0.08210  -0.14220  -0.12236   0.21194
  68        5S         -0.00365  -0.01727   0.02991  -0.01631   0.02825
  69        5PX         0.00500   0.01164  -0.01012   0.00514  -0.01489
  70        5PY        -0.00289   0.00332   0.01164  -0.00896   0.00514
  71        5PZ        -0.00929   0.00329  -0.00569  -0.00536   0.00928
  72        6D 0        0.00148   0.00025  -0.00044  -0.00076   0.00132
  73        6D+1       -0.00177  -0.00054   0.00180   0.00054  -0.00042
  74        6D-1        0.00102   0.00118  -0.00054   0.00020   0.00054
  75        6D+2       -0.00058  -0.00161  -0.00153  -0.00000  -0.00094
  76        6D-2        0.00101  -0.00153   0.00016  -0.00094   0.00108
  77        7D 0        0.00978   0.00102  -0.00177  -0.00623   0.01080
  78        7D+1       -0.01318  -0.00391   0.01022   0.00695  -0.00832
  79        7D-1        0.00761   0.00571  -0.00391  -0.00029   0.00695
  80        7D+2       -0.00262  -0.00974  -0.00858  -0.00354  -0.00920
  81        7D-2        0.00454  -0.00858   0.00017  -0.00920   0.00708
  82 4   F  1S         -0.00143   0.00134   0.00232  -0.00011  -0.00018
  83        2S         -0.00234   0.00217   0.00376  -0.00024  -0.00041
  84        2PX        -0.04910  -0.07029   0.09090   0.01774   0.13909
  85        2PY        -0.02835   0.17206  -0.07029   0.11860   0.01774
  86        2PZ         0.13704   0.07423   0.12856  -0.10091  -0.17477
  87        3S          0.00761  -0.00692  -0.01198   0.00107   0.00185
  88        3PX        -0.07077  -0.10026   0.13330   0.02716   0.20261
  89        3PY        -0.04086   0.24907  -0.10026   0.17124   0.02716
  90        3PZ         0.19888   0.10831   0.18760  -0.14537  -0.25179
  91        4S          0.00283  -0.01335  -0.02313  -0.00226  -0.00392
  92        4PX        -0.05454  -0.08286   0.09654   0.01553   0.15997
  93        4PY        -0.03149   0.19222  -0.08286   0.14204   0.01553
  94        4PZ         0.15571   0.08210   0.14220  -0.12236  -0.21194
  95        5S         -0.00365  -0.01727  -0.02991  -0.01631  -0.02825
  96        5PX        -0.00500  -0.01164  -0.01012  -0.00514  -0.01489
  97        5PY        -0.00289   0.00332  -0.01164  -0.00896  -0.00514
  98        5PZ        -0.00929   0.00329   0.00569  -0.00536  -0.00928
  99        6D 0        0.00148   0.00025   0.00044  -0.00076  -0.00132
 100        6D+1        0.00177   0.00054   0.00180  -0.00054  -0.00042
 101        6D-1        0.00102   0.00118   0.00054   0.00020  -0.00054
 102        6D+2       -0.00058  -0.00161   0.00153  -0.00000   0.00094
 103        6D-2       -0.00101   0.00153   0.00016   0.00094   0.00108
 104        7D 0        0.00978   0.00102   0.00177  -0.00623  -0.01080
 105        7D+1        0.01318   0.00391   0.01022  -0.00695  -0.00832
 106        7D-1        0.00761   0.00571   0.00391  -0.00029  -0.00695
 107        7D+2       -0.00262  -0.00974   0.00858  -0.00354   0.00920
 108        7D-2       -0.00454   0.00858   0.00017   0.00920   0.00708
                          16        17        18        19        20
                        (A2)--O   (A1)--V   (A1)--V   (E)--V    (E)--V
     Eigenvalues --    -0.77501  -0.53666  -0.20234  -0.19092  -0.19092
   1 1   C  1S          0.00000  -0.05505  -0.04607  -0.00000   0.00000
   2        2S          0.00000  -0.08900  -0.07525  -0.00000   0.00000
   3        2PX         0.00000   0.00000   0.00000   0.00000   0.29179
   4        2PY         0.00000  -0.00000  -0.00000   0.29179   0.00000
   5        2PZ         0.00000   0.24614  -0.18830  -0.00000   0.00000
   6        3S          0.00000   0.28809   0.22186   0.00000   0.00000
   7        3PX         0.00000   0.00000   0.00000   0.00000   0.46710
   8        3PY         0.00000  -0.00000  -0.00000   0.46710   0.00000
   9        3PZ         0.00000   0.37015  -0.31687  -0.00000   0.00000
  10        4S          0.00000   0.53118   0.95604   0.00000   0.00000
  11        4PX         0.00000   0.00000   0.00000   0.00000   0.95890
  12        4PY         0.00000  -0.00000  -0.00000   0.95890   0.00000
  13        4PZ         0.00000   0.23968  -0.46005  -0.00000   0.00000
  14        5S          0.00000   0.04899   1.14257   0.00000   0.00000
  15        5PX        -0.00000   0.00000   0.00000   0.00000   0.45643
  16        5PY         0.00000  -0.00000  -0.00000   0.45643   0.00000
  17        5PZ         0.00000   0.00343  -0.10263  -0.00000   0.00000
  18        6D 0        0.00000   0.01963   0.01877   0.00000   0.00000
  19        6D+1       -0.00000   0.00000   0.00000   0.00000   0.02302
  20        6D-1        0.00000  -0.00000  -0.00000   0.02302   0.00000
  21        6D+2        0.00000  -0.00000  -0.00000   0.02693   0.00000
  22        6D-2       -0.00000   0.00000   0.00000   0.00000   0.02693
  23        7D 0        0.00000   0.02961   0.05381   0.00000   0.00000
  24        7D+1       -0.00000   0.00000   0.00000   0.00000   0.07771
  25        7D-1        0.00000   0.00000  -0.00000   0.07771   0.00000
  26        7D+2        0.00000   0.00000  -0.00000   0.06663   0.00000
  27        7D-2       -0.00000   0.00000   0.00000   0.00000   0.06663
  28 2   F  1S          0.00000   0.00836   0.02864   0.03320   0.00000
  29        2S          0.00000   0.01396   0.04818   0.05571   0.00000
  30        2PX         0.19916   0.00000   0.00000   0.00000  -0.09469
  31        2PY         0.00000   0.03344   0.08964   0.10721   0.00000
  32        2PZ         0.00000  -0.12970   0.02467  -0.08168   0.00000
  33        3S          0.00000  -0.04712  -0.16929  -0.19227   0.00000
  34        3PX         0.28704   0.00000   0.00000   0.00000  -0.13423
  35        3PY         0.00000   0.05194   0.13500   0.15935   0.00000
  36        3PZ         0.00000  -0.18810   0.03196  -0.11792   0.00000
  37        4S          0.00000  -0.07692  -0.34341  -0.40097   0.00000
  38        4PX         0.24309   0.00000   0.00000   0.00000  -0.16774
  39        4PY         0.00000   0.05266   0.19432   0.22132   0.00000
  40        4PZ         0.00000  -0.17293   0.03310  -0.16281   0.00000
  41        5S          0.00000  -0.03690  -0.28560  -0.58967   0.00000
  42        5PX         0.00085   0.00000   0.00000   0.00000  -0.12638
  43        5PY         0.00000   0.01125   0.12676   0.25979   0.00000
  44        5PZ         0.00000  -0.04766   0.02189  -0.08062   0.00000
  45        6D 0        0.00000   0.00076  -0.00146  -0.00060   0.00000
  46        6D+1        0.00044   0.00000   0.00000   0.00000   0.00151
  47        6D-1        0.00000  -0.00056   0.00105  -0.00258   0.00000
  48        6D+2        0.00000   0.00065  -0.00186  -0.00190   0.00000
  49        6D-2       -0.00098   0.00000   0.00000   0.00000  -0.00295
  50        7D 0        0.00000   0.00497  -0.00228   0.00097   0.00000
  51        7D+1        0.00635   0.00000   0.00000   0.00000   0.01163
  52        7D-1        0.00000  -0.00098   0.01157  -0.00682   0.00000
  53        7D+2        0.00000   0.00461  -0.00214  -0.00344   0.00000
  54        7D-2       -0.01508   0.00000   0.00000   0.00000  -0.01574
  55 3   F  1S          0.00000   0.00836   0.02864  -0.01660   0.02875
  56        2S          0.00000   0.01396   0.04818  -0.02785   0.04824
  57        2PX        -0.09958   0.02896   0.07763  -0.08743   0.05674
  58        2PY        -0.17248  -0.01672  -0.04482  -0.04421  -0.08743
  59        2PZ        -0.00000  -0.12970   0.02467   0.04084  -0.07074
  60        3S         -0.00000  -0.04712  -0.16929   0.09613  -0.16651
  61        3PX        -0.14352   0.04498   0.11692  -0.12712   0.08596
  62        3PY        -0.24859  -0.02597  -0.06750  -0.06083  -0.12712
  63        3PZ        -0.00000  -0.18810   0.03196   0.05896  -0.10212
  64        4S         -0.00000  -0.07692  -0.34341   0.20048  -0.34725
  65        4PX        -0.12155   0.04560   0.16829  -0.16847   0.12405
  66        4PY        -0.21053  -0.02633  -0.09716  -0.07047  -0.16847
  67        4PZ        -0.00000  -0.17293   0.03310   0.08140  -0.14100
  68        5S         -0.00000  -0.03690  -0.28560   0.29484  -0.51067
  69        5PX        -0.00043   0.00975   0.10978  -0.16722   0.16325
  70        5PY        -0.00074  -0.00563  -0.06338  -0.02984  -0.16722
  71        5PZ        -0.00000  -0.04766   0.02189   0.04031  -0.06982
  72        6D 0       -0.00000   0.00076  -0.00146   0.00030  -0.00052
  73        6D+1       -0.00022  -0.00049   0.00091   0.00177  -0.00156
  74        6D-1       -0.00038   0.00028  -0.00052   0.00049   0.00177
  75        6D+2        0.00085  -0.00033   0.00093  -0.00269  -0.00045
  76        6D-2        0.00049   0.00056  -0.00161  -0.00045  -0.00216
  77        7D 0       -0.00000   0.00497  -0.00228  -0.00049   0.00084
  78        7D+1       -0.00318  -0.00085   0.01002   0.00799  -0.00220
  79        7D-1       -0.00550   0.00049  -0.00579   0.00702   0.00799
  80        7D+2        0.01306  -0.00231   0.00107  -0.01267  -0.00533
  81        7D-2        0.00754   0.00399  -0.00185  -0.00533  -0.00651
  82 4   F  1S         -0.00000   0.00836   0.02864  -0.01660  -0.02875
  83        2S         -0.00000   0.01396   0.04818  -0.02785  -0.04824
  84        2PX        -0.09958  -0.02896  -0.07763   0.08743   0.05674
  85        2PY         0.17248  -0.01672  -0.04482  -0.04421   0.08743
  86        2PZ         0.00000  -0.12970   0.02467   0.04084   0.07074
  87        3S          0.00000  -0.04712  -0.16929   0.09613   0.16651
  88        3PX        -0.14352  -0.04498  -0.11692   0.12712   0.08596
  89        3PY         0.24859  -0.02597  -0.06750  -0.06083   0.12712
  90        3PZ         0.00000  -0.18810   0.03196   0.05896   0.10212
  91        4S          0.00000  -0.07692  -0.34341   0.20048   0.34725
  92        4PX        -0.12155  -0.04560  -0.16829   0.16847   0.12405
  93        4PY         0.21053  -0.02633  -0.09716  -0.07047   0.16847
  94        4PZ         0.00000  -0.17293   0.03310   0.08140   0.14100
  95        5S          0.00000  -0.03690  -0.28560   0.29484   0.51067
  96        5PX        -0.00043  -0.00975  -0.10978   0.16722   0.16325
  97        5PY         0.00074  -0.00563  -0.06338  -0.02984   0.16722
  98        5PZ         0.00000  -0.04766   0.02189   0.04031   0.06982
  99        6D 0        0.00000   0.00076  -0.00146   0.00030   0.00052
 100        6D+1       -0.00022   0.00049  -0.00091  -0.00177  -0.00156
 101        6D-1        0.00038   0.00028  -0.00052   0.00049  -0.00177
 102        6D+2       -0.00085  -0.00033   0.00093  -0.00269   0.00045
 103        6D-2        0.00049  -0.00056   0.00161   0.00045  -0.00216
 104        7D 0        0.00000   0.00497  -0.00228  -0.00049  -0.00084
 105        7D+1       -0.00318   0.00085  -0.01002  -0.00799  -0.00220
 106        7D-1        0.00550   0.00049  -0.00579   0.00702  -0.00799
 107        7D+2       -0.01306  -0.00231   0.00107  -0.01267   0.00533
 108        7D-2        0.00754  -0.00399   0.00185   0.00533  -0.00651
                          21        22        23        24        25
                        (A1)--V   (A1)--V   (E)--V    (E)--V    (E)--V
     Eigenvalues --    -0.14200  -0.11788  -0.10406  -0.10406   0.00826
   1 1   C  1S         -0.07875   0.05136   0.00000   0.00000   0.00000
   2        2S         -0.13262   0.08626   0.00000   0.00000   0.00000
   3        2PX         0.00000   0.00000   0.00000  -0.18979   0.00000
   4        2PY         0.00000   0.00000  -0.18979   0.00000   0.02461
   5        2PZ        -0.04167   0.13969   0.00000   0.00000  -0.00000
   6        3S          0.53474  -0.34731  -0.00000   0.00000  -0.00000
   7        3PX         0.00000   0.00000   0.00000  -0.31873   0.00000
   8        3PY         0.00000   0.00000  -0.31873   0.00000  -0.02329
   9        3PZ        -0.07414   0.25552   0.00000   0.00000  -0.00000
  10        4S          1.27189  -0.79694  -0.00000   0.00000  -0.00000
  11        4PX         0.00000   0.00000   0.00000  -0.45594   0.00000
  12        4PY         0.00000   0.00000  -0.45594   0.00000   0.58957
  13        4PZ        -0.23785   0.19907   0.00000   0.00000   0.00000
  14        5S         -0.92754   0.97029   0.00000   0.00000  -0.00000
  15        5PX         0.00000   0.00000   0.00000   1.19965   0.00000
  16        5PY         0.00000  -0.00000   1.19965   0.00000   0.00438
  17        5PZ        -0.57475  -0.95687  -0.00000   0.00000   0.00000
  18        6D 0        0.01031  -0.01393  -0.00000   0.00000   0.00000
  19        6D+1        0.00000   0.00000   0.00000  -0.00992   0.00000
  20        6D-1        0.00000  -0.00000  -0.00992   0.00000  -0.00472
  21        6D+2        0.00000   0.00000  -0.01642   0.00000  -0.00244
  22        6D-2        0.00000   0.00000   0.00000  -0.01642   0.00000
  23        7D 0        0.01467  -0.06970  -0.00000   0.00000   0.00000
  24        7D+1        0.00000   0.00000   0.00000  -0.02312   0.00000
  25        7D-1        0.00000  -0.00000  -0.02312   0.00000  -0.07915
  26        7D+2        0.00000  -0.00000  -0.06982   0.00000  -0.04460
  27        7D-2        0.00000   0.00000   0.00000  -0.06982   0.00000
  28 2   F  1S          0.01100  -0.00395  -0.00210   0.00000   0.01108
  29        2S          0.01840  -0.00645  -0.00321   0.00000   0.01869
  30        2PX         0.00000   0.00000   0.00000  -0.00472   0.00000
  31        2PY         0.09757  -0.07900  -0.09679   0.00000  -0.04809
  32        2PZ         0.01170   0.03312   0.03100   0.00000   0.04920
  33        3S         -0.06048   0.01668   0.00176   0.00000  -0.06822
  34        3PX         0.00000   0.00000   0.00000  -0.01255   0.00000
  35        3PY         0.14445  -0.11714  -0.14542   0.00000  -0.05149
  36        3PZ         0.01764   0.05311   0.04376   0.00000   0.05703
  37        4S         -0.15792   0.07348   0.05775   0.00000  -0.19510
  38        4PX         0.00000   0.00000   0.00000   0.02321   0.00000
  39        4PY         0.18569  -0.13615  -0.15036   0.00000  -0.14224
  40        4PZ         0.00596   0.03811   0.05713   0.00000   0.16233
  41        5S         -0.07871  -0.12909   0.02667   0.00000  -0.62649
  42        5PX         0.00000   0.00000   0.00000   0.04452   0.00000
  43        5PY         0.14444  -0.09487  -0.21022   0.00000   1.19268
  44        5PZ        -0.01690   0.01421   0.05941   0.00000  -0.76226
  45        6D 0       -0.00116   0.00147   0.00074   0.00000  -0.00065
  46        6D+1        0.00000   0.00000   0.00000  -0.00108   0.00000
  47        6D-1       -0.00086  -0.00046   0.00164   0.00000  -0.00073
  48        6D+2       -0.00226   0.00235   0.00172   0.00000  -0.00152
  49        6D-2        0.00000   0.00000   0.00000   0.00253   0.00000
  50        7D 0       -0.00422   0.00947   0.00114   0.00000  -0.00347
  51        7D+1        0.00000   0.00000   0.00000  -0.00674   0.00000
  52        7D-1       -0.00324  -0.00474   0.01125   0.00000  -0.01342
  53        7D+2       -0.01013   0.01255   0.00710   0.00000  -0.01517
  54        7D-2        0.00000   0.00000   0.00000   0.01590   0.00000
  55 3   F  1S          0.01100  -0.00395   0.00105  -0.00182  -0.00554
  56        2S          0.01840  -0.00645   0.00160  -0.00278  -0.00934
  57        2PX         0.08450  -0.06842   0.03987  -0.07377   0.04562
  58        2PY        -0.04879   0.03950  -0.02774   0.03987   0.03093
  59        2PZ         0.01170   0.03312  -0.01550   0.02685  -0.02460
  60        3S         -0.06048   0.01668  -0.00088   0.00153   0.03411
  61        3PX         0.12509  -0.10144   0.05753  -0.11221   0.05304
  62        3PY        -0.07222   0.05857  -0.04577   0.05753   0.04037
  63        3PZ         0.01764   0.05311  -0.02188   0.03790  -0.02851
  64        4S         -0.15792   0.07348  -0.02887   0.05001   0.09755
  65        4PX         0.16081  -0.11791   0.07516  -0.10697   0.13345
  66        4PY        -0.09284   0.06807  -0.02018   0.07516   0.08890
  67        4PZ         0.00596   0.03811  -0.02856   0.04947  -0.08116
  68        5S         -0.07871  -0.12909  -0.01333   0.02310   0.31324
  69        5PX         0.12509  -0.08216   0.11031  -0.14653  -0.70421
  70        5PY        -0.07222   0.04744  -0.01916   0.11031  -0.02704
  71        5PZ        -0.01690   0.01421  -0.02971   0.05145   0.38113
  72        6D 0       -0.00116   0.00147  -0.00037   0.00064   0.00032
  73        6D+1       -0.00074  -0.00040  -0.00118   0.00096   0.00029
  74        6D-1        0.00043   0.00023  -0.00040  -0.00118  -0.00023
  75        6D+2        0.00113  -0.00118   0.00232   0.00035  -0.00060
  76        6D-2       -0.00196   0.00204   0.00035   0.00192   0.00053
  77        7D 0       -0.00422   0.00947  -0.00057   0.00099   0.00174
  78        7D+1       -0.00281  -0.00411  -0.00779   0.00675   0.00341
  79        7D-1        0.00162   0.00237  -0.00224  -0.00779  -0.00751
  80        7D+2        0.00507  -0.00627   0.01370   0.00381  -0.01081
  81        7D-2       -0.00878   0.01087   0.00381   0.00930   0.00251
  82 4   F  1S          0.01100  -0.00395   0.00105   0.00182  -0.00554
  83        2S          0.01840  -0.00645   0.00160   0.00278  -0.00934
  84        2PX        -0.08450   0.06842  -0.03987  -0.07377  -0.04562
  85        2PY        -0.04879   0.03950  -0.02774  -0.03987   0.03093
  86        2PZ         0.01170   0.03312  -0.01550  -0.02685  -0.02460
  87        3S         -0.06048   0.01668  -0.00088  -0.00153   0.03411
  88        3PX        -0.12509   0.10144  -0.05753  -0.11221  -0.05304
  89        3PY        -0.07222   0.05857  -0.04577  -0.05753   0.04037
  90        3PZ         0.01764   0.05311  -0.02188  -0.03790  -0.02851
  91        4S         -0.15792   0.07348  -0.02887  -0.05001   0.09755
  92        4PX        -0.16081   0.11791  -0.07516  -0.10697  -0.13345
  93        4PY        -0.09284   0.06807  -0.02018  -0.07516   0.08890
  94        4PZ         0.00596   0.03811  -0.02856  -0.04947  -0.08116
  95        5S         -0.07871  -0.12909  -0.01333  -0.02310   0.31324
  96        5PX        -0.12509   0.08216  -0.11031  -0.14653   0.70421
  97        5PY        -0.07222   0.04744  -0.01916  -0.11031  -0.02704
  98        5PZ        -0.01690   0.01421  -0.02971  -0.05145   0.38113
  99        6D 0       -0.00116   0.00147  -0.00037  -0.00064   0.00032
 100        6D+1        0.00074   0.00040   0.00118   0.00096  -0.00029
 101        6D-1        0.00043   0.00023  -0.00040   0.00118  -0.00023
 102        6D+2        0.00113  -0.00118   0.00232  -0.00035  -0.00060
 103        6D-2        0.00196  -0.00204  -0.00035   0.00192  -0.00053
 104        7D 0       -0.00422   0.00947  -0.00057  -0.00099   0.00174
 105        7D+1        0.00281   0.00411   0.00779   0.00675  -0.00341
 106        7D-1        0.00162   0.00237  -0.00224   0.00779  -0.00751
 107        7D+2        0.00507  -0.00627   0.01370  -0.00381  -0.01081
 108        7D-2        0.00878  -0.01087  -0.00381   0.00930  -0.00251
                          26        27        28        29        30
                        (E)--V    (E)--V    (E)--V    (A1)--V   (A1)--V
     Eigenvalues --     0.00826   0.01531   0.01531   0.01643   0.06021
   1 1   C  1S          0.00000   0.00000   0.00000  -0.01548  -0.02668
   2        2S          0.00000   0.00000   0.00000  -0.02443  -0.04453
   3        2PX         0.02461   0.00000  -0.05064   0.00000   0.00000
   4        2PY         0.00000  -0.05064   0.00000  -0.00000   0.00000
   5        2PZ         0.00000  -0.00000   0.00000   0.02402   0.01930
   6        3S          0.00000  -0.00000   0.00000   0.05207   0.11115
   7        3PX        -0.02329   0.00000  -0.07860   0.00000   0.00000
   8        3PY         0.00000  -0.07860   0.00000  -0.00000  -0.00000
   9        3PZ         0.00000  -0.00000   0.00000   0.10520  -0.00616
  10        4S          0.00000  -0.00000   0.00000   2.31798   3.73392
  11        4PX         0.58957   0.00000   0.34317   0.00000   0.00000
  12        4PY         0.00000   0.34317   0.00000   0.00000  -0.00000
  13        4PZ         0.00000   0.00000   0.00000  -0.67398  -0.29630
  14        5S          0.00000  -0.00000   0.00000   0.50630   2.27253
  15        5PX         0.00438   0.00000   0.40835   0.00000   0.00000
  16        5PY         0.00000   0.40835   0.00000   0.00000   0.00000
  17        5PZ         0.00000   0.00000   0.00000  -0.53604   0.55566
  18        6D 0        0.00000   0.00000   0.00000  -0.00997  -0.00309
  19        6D+1       -0.00472   0.00000   0.00054   0.00000   0.00000
  20        6D-1        0.00000   0.00054   0.00000  -0.00000  -0.00000
  21        6D+2        0.00000  -0.00159   0.00000  -0.00000  -0.00000
  22        6D-2       -0.00244   0.00000  -0.00159   0.00000   0.00000
  23        7D 0        0.00000   0.00000   0.00000  -0.12725  -0.03573
  24        7D+1       -0.07915   0.00000  -0.02847   0.00000   0.00000
  25        7D-1        0.00000  -0.02847   0.00000  -0.00000   0.00000
  26        7D+2        0.00000  -0.06883   0.00000  -0.00000   0.00000
  27        7D-2       -0.04460   0.00000  -0.06883   0.00000   0.00000
  28 2   F  1S          0.00000  -0.00433   0.00000  -0.00092  -0.01292
  29        2S          0.00000  -0.00772   0.00000  -0.00179  -0.02165
  30        2PX         0.05726   0.00000   0.07549   0.00000   0.00000
  31        2PY         0.00000  -0.03674   0.00000  -0.05142   0.01653
  32        2PZ         0.00000  -0.06823   0.00000  -0.04501   0.02922
  33        3S          0.00000   0.03865   0.00000   0.01172   0.07486
  34        3PX         0.07099   0.00000   0.09373   0.00000   0.00000
  35        3PY         0.00000  -0.05134   0.00000  -0.06924  -0.00074
  36        3PZ         0.00000  -0.07490   0.00000  -0.05585   0.03434
  37        4S          0.00000  -0.09838   0.00000  -0.04061   0.30146
  38        4PX         0.16595   0.00000   0.21840   0.00000   0.00000
  39        4PY         0.00000  -0.02088   0.00000  -0.08855   0.19269
  40        4PZ         0.00000  -0.26864   0.00000  -0.14189   0.09221
  41        5S          0.00000  -0.14336   0.00000  -0.69832  -2.25737
  42        5PX        -0.43361   0.00000  -0.73247   0.00000   0.00000
  43        5PY         0.00000   0.09334   0.00000   0.93969   0.59132
  44        5PZ         0.00000   0.89400   0.00000   0.29990  -0.81036
  45        6D 0        0.00000   0.00005   0.00000  -0.00117  -0.00084
  46        6D+1       -0.00006   0.00000   0.00051   0.00000   0.00000
  47        6D-1        0.00000   0.00128   0.00000  -0.00148  -0.00237
  48        6D+2        0.00000  -0.00043   0.00000  -0.00188  -0.00328
  49        6D-2       -0.00029   0.00000  -0.00037   0.00000   0.00000
  50        7D 0        0.00000   0.00185   0.00000  -0.01229   0.00874
  51        7D+1       -0.00554   0.00000   0.01035   0.00000   0.00000
  52        7D-1        0.00000   0.01749   0.00000  -0.00728  -0.00893
  53        7D+2        0.00000  -0.00163   0.00000  -0.00771  -0.01055
  54        7D-2       -0.00936   0.00000  -0.00268   0.00000   0.00000
  55 3   F  1S          0.00960   0.00216  -0.00375  -0.00092  -0.01292
  56        2S          0.01618   0.00386  -0.00668  -0.00179  -0.02165
  57        2PX        -0.02175   0.04860  -0.00868  -0.04453   0.01432
  58        2PY         0.04562   0.04743   0.04860   0.02571  -0.00827
  59        2PZ         0.04261   0.03412  -0.05909  -0.04501   0.02922
  60        3S         -0.05908  -0.01932   0.03347   0.01172   0.07486
  61        3PX        -0.02087   0.06282  -0.01507  -0.05997  -0.00064
  62        3PY         0.05304   0.05746   0.06282   0.03462   0.00037
  63        3PZ         0.04939   0.03745  -0.06487  -0.05585   0.03434
  64        4S         -0.16896   0.04919  -0.08520  -0.04061   0.30146
  65        4PX        -0.06519   0.10361   0.03894  -0.07669   0.16688
  66        4PY         0.13345   0.15858   0.10361   0.04428  -0.09635
  67        4PZ         0.14058   0.13432  -0.23265  -0.14189   0.09221
  68        5S         -0.54255   0.07168  -0.12415  -0.69832  -2.25737
  69        5PX         0.78611  -0.35759  -0.11311   0.81379   0.51210
  70        5PY        -0.70421  -0.52602  -0.35759  -0.46984  -0.29566
  71        5PZ        -0.66014  -0.44700   0.77422   0.29990  -0.81036
  72        6D 0       -0.00056  -0.00002   0.00004  -0.00117  -0.00084
  73        6D+1       -0.00056  -0.00033   0.00109  -0.00128  -0.00205
  74        6D-1        0.00029   0.00070  -0.00033   0.00074   0.00118
  75        6D+2        0.00053  -0.00038   0.00003   0.00094   0.00164
  76        6D-2       -0.00121   0.00003  -0.00041  -0.00163  -0.00284
  77        7D 0       -0.00301  -0.00093   0.00160  -0.01229   0.00874
  78        7D+1       -0.01145  -0.00309   0.01571  -0.00631  -0.00774
  79        7D-1        0.00341   0.01214  -0.00309   0.00364   0.00447
  80        7D+2        0.00251  -0.00241  -0.00045   0.00386   0.00528
  81        7D-2       -0.01371  -0.00045  -0.00189  -0.00668  -0.00914
  82 4   F  1S         -0.00960   0.00216   0.00375  -0.00092  -0.01292
  83        2S         -0.01618   0.00386   0.00668  -0.00179  -0.02165
  84        2PX        -0.02175  -0.04860  -0.00868   0.04453  -0.01432
  85        2PY        -0.04562   0.04743  -0.04860   0.02571  -0.00827
  86        2PZ        -0.04261   0.03412   0.05909  -0.04501   0.02922
  87        3S          0.05908  -0.01932  -0.03347   0.01172   0.07486
  88        3PX        -0.02087  -0.06282  -0.01507   0.05997   0.00064
  89        3PY        -0.05304   0.05746  -0.06282   0.03462   0.00037
  90        3PZ        -0.04939   0.03745   0.06487  -0.05585   0.03434
  91        4S          0.16896   0.04919   0.08520  -0.04061   0.30146
  92        4PX        -0.06519  -0.10361   0.03894   0.07669  -0.16688
  93        4PY        -0.13345   0.15858  -0.10361   0.04428  -0.09635
  94        4PZ        -0.14058   0.13432   0.23265  -0.14189   0.09221
  95        5S          0.54255   0.07168   0.12415  -0.69832  -2.25737
  96        5PX         0.78611   0.35759  -0.11311  -0.81379  -0.51210
  97        5PY         0.70421  -0.52602   0.35759  -0.46984  -0.29566
  98        5PZ         0.66014  -0.44700  -0.77422   0.29990  -0.81036
  99        6D 0        0.00056  -0.00002  -0.00004  -0.00117  -0.00084
 100        6D+1       -0.00056   0.00033   0.00109   0.00128   0.00205
 101        6D-1       -0.00029   0.00070   0.00033   0.00074   0.00118
 102        6D+2       -0.00053  -0.00038  -0.00003   0.00094   0.00164
 103        6D-2       -0.00121  -0.00003  -0.00041   0.00163   0.00284
 104        7D 0        0.00301  -0.00093  -0.00160  -0.01229   0.00874
 105        7D+1       -0.01145   0.00309   0.01571   0.00631   0.00774
 106        7D-1       -0.00341   0.01214   0.00309   0.00364   0.00447
 107        7D+2       -0.00251  -0.00241   0.00045   0.00386   0.00528
 108        7D-2       -0.01371   0.00045  -0.00189   0.00668   0.00914
                          31        32        33        34        35
                        (A2)--V   (E)--V    (E)--V    (A1)--V   (E)--V
     Eigenvalues --     0.11303   0.11794   0.11794   0.12228   0.16526
   1 1   C  1S          0.00000   0.00000   0.00000  -0.00986   0.00000
   2        2S          0.00000   0.00000   0.00000  -0.01879   0.00000
   3        2PX         0.00000   0.00000  -0.07016   0.00000   0.00000
   4        2PY         0.00000  -0.07016   0.00000  -0.00000  -0.08597
   5        2PZ         0.00000   0.00000   0.00000  -0.08755  -0.00000
   6        3S          0.00000  -0.00000   0.00000   0.03665  -0.00000
   7        3PX         0.00000   0.00000  -0.18616   0.00000   0.00000
   8        3PY         0.00000  -0.18616   0.00000  -0.00000  -0.13169
   9        3PZ         0.00000   0.00000   0.00000  -0.20669  -0.00000
  10        4S          0.00000  -0.00000   0.00000   0.93688   0.00000
  11        4PX         0.00000   0.00000  -1.30774   0.00000   0.00000
  12        4PY         0.00000  -1.30774   0.00000  -0.00000  -1.09477
  13        4PZ         0.00000   0.00000   0.00000  -0.50332  -0.00000
  14        5S          0.00000  -0.00000   0.00000   2.80263   0.00000
  15        5PX         0.00000   0.00000  -2.22595   0.00000   0.00000
  16        5PY         0.00000  -2.22595   0.00000  -0.00000   0.38974
  17        5PZ         0.00000   0.00000   0.00000  -1.79700  -0.00000
  18        6D 0        0.00000  -0.00000   0.00000   0.00520  -0.00000
  19        6D+1        0.00000   0.00000  -0.00285   0.00000   0.00000
  20        6D-1        0.00000  -0.00285   0.00000  -0.00000   0.00346
  21        6D+2        0.00000  -0.00190   0.00000  -0.00000   0.00366
  22        6D-2        0.00000   0.00000  -0.00190   0.00000   0.00000
  23        7D 0        0.00000  -0.00000   0.00000   0.00151  -0.00000
  24        7D+1       -0.00000   0.00000   0.07526   0.00000   0.00000
  25        7D-1        0.00000   0.07526   0.00000   0.00000   0.05567
  26        7D+2        0.00000   0.09956   0.00000   0.00000  -0.06995
  27        7D-2       -0.00000   0.00000   0.09956   0.00000   0.00000
  28 2   F  1S          0.00000   0.01822   0.00000  -0.01143   0.01360
  29        2S          0.00000   0.03044   0.00000  -0.01912   0.02118
  30        2PX        -0.05761   0.00000  -0.04536   0.00000   0.00000
  31        2PY         0.00000  -0.06782   0.00000   0.04174  -0.00497
  32        2PZ         0.00000  -0.01670   0.00000  -0.04507   0.02660
  33        3S          0.00000  -0.10543   0.00000   0.06611  -0.02922
  34        3PX        -0.05999   0.00000  -0.05752   0.00000   0.00000
  35        3PY         0.00000  -0.06421   0.00000   0.03648   0.00387
  36        3PZ         0.00000  -0.02064   0.00000  -0.04779   0.02295
  37        4S          0.00000  -0.35575   0.00000   0.27157  -0.91489
  38        4PX        -0.24341   0.00000  -0.12938   0.00000   0.00000
  39        4PY         0.00000  -0.41516   0.00000   0.24968   0.01831
  40        4PZ         0.00000  -0.02467   0.00000  -0.19483   0.10743
  41        5S          0.00000   2.98821   0.00000  -2.01775   4.92492
  42        5PX         1.41800   0.00000   1.01492   0.00000   0.00000
  43        5PY         0.00000   0.39971   0.00000  -0.21940  -2.97913
  44        5PZ         0.00000   0.82673   0.00000   0.81764  -0.03253
  45        6D 0        0.00000   0.00043   0.00000  -0.00119   0.00396
  46        6D+1       -0.00023   0.00000  -0.00026   0.00000   0.00000
  47        6D-1        0.00000   0.00284   0.00000   0.00025   0.00110
  48        6D+2        0.00000   0.00286   0.00000  -0.00171   0.00447
  49        6D-2        0.00233   0.00000   0.00167   0.00000   0.00000
  50        7D 0        0.00000  -0.00793   0.00000   0.00233   0.02549
  51        7D+1       -0.00089   0.00000  -0.00955   0.00000   0.00000
  52        7D-1        0.00000   0.00698   0.00000   0.01064   0.00988
  53        7D+2        0.00000  -0.00666   0.00000   0.00060   0.01833
  54        7D-2        0.01777   0.00000   0.00332   0.00000   0.00000
  55 3   F  1S         -0.00000  -0.00911   0.01578  -0.01143  -0.00680
  56        2S         -0.00000  -0.01522   0.02637  -0.01912  -0.01059
  57        2PX         0.02881   0.00973  -0.06220   0.03615   0.01195
  58        2PY         0.04989  -0.05097   0.00973  -0.02087   0.01572
  59        2PZ         0.00000   0.00835  -0.01447  -0.04507  -0.01330
  60        3S          0.00000   0.05272  -0.09131   0.06611   0.01461
  61        3PX         0.03000   0.00290  -0.06254   0.03159   0.00481
  62        3PY         0.05196  -0.05919   0.00290  -0.01824   0.01221
  63        3PZ         0.00000   0.01032  -0.01788  -0.04779  -0.01147
  64        4S          0.00000   0.17788  -0.30809   0.27157   0.45744
  65        4PX         0.12171   0.12375  -0.34371   0.21623   0.06807
  66        4PY         0.21080  -0.20082   0.12375  -0.12484   0.13621
  67        4PZ        -0.00000   0.01233  -0.02136  -0.19483  -0.05371
  68        5S         -0.00000  -1.49410   2.58787  -2.01775  -2.46246
  69        5PX        -0.70900   0.26639   0.55352  -0.19001   0.81899
  70        5PY        -1.22803   0.86112   0.26639   0.10970  -1.56060
  71        5PZ        -0.00000  -0.41337   0.71597   0.81764   0.01627
  72        6D 0       -0.00000  -0.00022   0.00038  -0.00119  -0.00198
  73        6D+1        0.00012  -0.00134   0.00206   0.00022  -0.00091
  74        6D-1        0.00020   0.00051  -0.00134  -0.00013  -0.00048
  75        6D+2       -0.00202   0.00197  -0.00051   0.00086   0.00046
  76        6D-2       -0.00117  -0.00051   0.00256  -0.00148  -0.00232
  77        7D 0        0.00000   0.00396  -0.00687   0.00233  -0.01275
  78        7D+1        0.00044  -0.00715   0.00285   0.00922  -0.00909
  79        7D-1        0.00077  -0.00542  -0.00715  -0.00532  -0.00587
  80        7D+2       -0.01539   0.00082   0.00432  -0.00030  -0.01011
  81        7D-2       -0.00888   0.00432  -0.00416   0.00052  -0.01642
  82 4   F  1S          0.00000  -0.00911  -0.01578  -0.01143  -0.00680
  83        2S          0.00000  -0.01522  -0.02637  -0.01912  -0.01059
  84        2PX         0.02881  -0.00973  -0.06220  -0.03615  -0.01195
  85        2PY        -0.04989  -0.05097  -0.00973  -0.02087   0.01572
  86        2PZ        -0.00000   0.00835   0.01447  -0.04507  -0.01330
  87        3S         -0.00000   0.05272   0.09131   0.06611   0.01461
  88        3PX         0.03000  -0.00290  -0.06254  -0.03159  -0.00481
  89        3PY        -0.05196  -0.05919  -0.00290  -0.01824   0.01221
  90        3PZ        -0.00000   0.01032   0.01788  -0.04779  -0.01147
  91        4S         -0.00000   0.17788   0.30809   0.27157   0.45744
  92        4PX         0.12171  -0.12375  -0.34371  -0.21623  -0.06807
  93        4PY        -0.21080  -0.20082  -0.12375  -0.12484   0.13621
  94        4PZ         0.00000   0.01233   0.02136  -0.19483  -0.05371
  95        5S          0.00000  -1.49410  -2.58787  -2.01775  -2.46246
  96        5PX        -0.70900  -0.26639   0.55352   0.19001  -0.81899
  97        5PY         1.22803   0.86112  -0.26639   0.10970  -1.56060
  98        5PZ         0.00000  -0.41337  -0.71597   0.81764   0.01627
  99        6D 0        0.00000  -0.00022  -0.00038  -0.00119  -0.00198
 100        6D+1        0.00012   0.00134   0.00206  -0.00022   0.00091
 101        6D-1       -0.00020   0.00051   0.00134  -0.00013  -0.00048
 102        6D+2        0.00202   0.00197   0.00051   0.00086   0.00046
 103        6D-2       -0.00117   0.00051   0.00256   0.00148   0.00232
 104        7D 0       -0.00000   0.00396   0.00687   0.00233  -0.01275
 105        7D+1        0.00044   0.00715   0.00285  -0.00922   0.00909
 106        7D-1       -0.00077  -0.00542   0.00715  -0.00532  -0.00587
 107        7D+2        0.01539   0.00082  -0.00432  -0.00030  -0.01011
 108        7D-2       -0.00888  -0.00432  -0.00416  -0.00052   0.01642
                          36        37        38        39        40
                        (E)--V    (A1)--V   (E)--V    (E)--V    (A1)--V
     Eigenvalues --     0.16526   0.24912   0.30544   0.30544   0.43783
   1 1   C  1S          0.00000   0.03649   0.00000   0.00000   0.06468
   2        2S          0.00000   0.06745   0.00000   0.00000   0.12766
   3        2PX        -0.08597   0.00000  -0.23331   0.00000   0.00000
   4        2PY         0.00000  -0.00000   0.00000   0.23331  -0.00000
   5        2PZ         0.00000  -0.19290   0.00000   0.00000   0.11009
   6        3S          0.00000  -0.36615   0.00000  -0.00000  -1.17651
   7        3PX        -0.13169   0.00000  -0.59414   0.00000   0.00000
   8        3PY         0.00000  -0.00000   0.00000   0.59414  -0.00000
   9        3PZ         0.00000  -0.69278   0.00000  -0.00000   0.23980
  10        4S          0.00000  -0.00085   0.00000   0.00000   4.31041
  11        4PX        -1.09477   0.00000   6.16678   0.00000   0.00000
  12        4PY         0.00000   0.00000   0.00000  -6.16678   0.00000
  13        4PZ         0.00000   2.49120   0.00000  -0.00000  -1.55100
  14        5S          0.00000  -1.51557   0.00000   0.00000   0.47998
  15        5PX         0.38974   0.00000  -0.00733   0.00000   0.00000
  16        5PY         0.00000   0.00000   0.00000   0.00733  -0.00000
  17        5PZ         0.00000   0.05682   0.00000  -0.00000  -0.24890
  18        6D 0        0.00000   0.00165   0.00000   0.00000   0.02139
  19        6D+1        0.00346   0.00000   0.02406   0.00000   0.00000
  20        6D-1        0.00000   0.00000   0.00000  -0.02406   0.00000
  21        6D+2        0.00000   0.00000   0.00000  -0.00792   0.00000
  22        6D-2        0.00366   0.00000   0.00792   0.00000   0.00000
  23        7D 0        0.00000   0.17893   0.00000  -0.00000   0.89151
  24        7D+1        0.05567   0.00000   0.00721   0.00000   0.00000
  25        7D-1        0.00000  -0.00000   0.00000  -0.00721   0.00000
  26        7D+2        0.00000  -0.00000   0.00000   0.43645   0.00000
  27        7D-2       -0.06995   0.00000  -0.43645   0.00000   0.00000
  28 2   F  1S          0.00000  -0.00209   0.00000   0.01054  -0.00738
  29        2S          0.00000  -0.00324   0.00000   0.01996  -0.01388
  30        2PX         0.02261   0.00000  -0.01248   0.00000   0.00000
  31        2PY         0.00000  -0.03052   0.00000   0.05324  -0.02776
  32        2PZ         0.00000   0.00643   0.00000   0.00094   0.04338
  33        3S          0.00000   0.00336   0.00000  -0.13192   0.08339
  34        3PX         0.01498   0.00000   0.02005   0.00000   0.00000
  35        3PY         0.00000  -0.03527   0.00000   0.10741  -0.07065
  36        3PZ         0.00000   0.02011   0.00000  -0.01273   0.06957
  37        4S          0.00000   0.21572   0.00000   0.75549  -0.06465
  38        4PX         0.17551   0.00000  -0.26920   0.00000   0.00000
  39        4PY         0.00000  -0.19612   0.00000  -0.47867   0.13202
[...]
                                           -0.0179  0.0049  0.0115 -0.0233  0.0107
                                            0.0113 -0.0111
                ( 30.08%)  -0.5485* F   3 s( 16.11%)p 5.19( 83.69%)d 0.01(  0.20%)
                                            0.0000 -0.4011  0.0141 -0.0057  0.0001
                                            0.6303 -0.0046  0.0005 -0.0034 -0.3639
                                            0.0027 -0.0003  0.0019 -0.5542  0.0022
                                           -0.0007  0.0019  0.0261  0.0023  0.0276
                                            0.0018 -0.0159 -0.0010 -0.0151 -0.0013
                                            0.0074  0.0014
   108. (0.07297) BD*( 1) C   1 - F   4  
                ( 69.92%)   0.8362* C   1 s( 33.59%)p 1.97( 66.08%)d 0.01(  0.33%)
                                            0.0000  0.5796  0.0011 -0.0013  0.0000
                                           -0.7046  0.0352  0.0081 -0.0005 -0.4026
                                            0.0181  0.0028 -0.0004 -0.0032  0.0200
                                            0.0102 -0.0045  0.0388 -0.0200  0.0039
                                           -0.0179 -0.0049 -0.0115  0.0233 -0.0107
                                           -0.0113  0.0111
                ( 30.08%)  -0.5485* F   4 s( 16.11%)p 5.19( 83.69%)d 0.01(  0.20%)
                                           -0.0000  0.4011 -0.0141  0.0057 -0.0001
                                            0.6303 -0.0046  0.0005 -0.0034  0.3639
                                           -0.0027  0.0003 -0.0019  0.5542 -0.0022
                                            0.0007 -0.0019  0.0261  0.0023  0.0276
                                            0.0018  0.0159  0.0010  0.0151  0.0013
                                           -0.0074 -0.0014


 NHO Directionality and "Bond Bending" (deviations from line of nuclear centers)

         [Thresholds for printing:  angular deviation  >  1.0 degree]
                                    hybrid p-character > 25.0%
                                    orbital occupancy  >  0.10e

                                Line of Centers        Hybrid 1              Hybrid 2
                                ---------------  -------------------   ------------------
                NBO               Theta   Phi    Theta   Phi    Dev    Theta   Phi    Dev
 ========================================================================================
     1. BD (   1) C   1 - F   2   107.5   90.0   177.4   90.0  69.9    150.5  270.0  78.1
     2. BD (   2) C   1 - F   2   107.5   90.0    78.2   90.0  29.3     53.0  270.0  19.4
     3. BD (   1) C   1 - F   3   107.5  330.0    88.3  330.0  19.2     52.6  150.0  19.9
     4. BD (   1) C   1 - F   4   107.5  210.0    88.3  210.0  19.2     52.6   30.0  19.9
    10. LP (   2) F   2             --     --     90.0    0.0   --       --     --    --
    12. LP (   2) F   3             --     --     90.0   60.0   --       --     --    --
    13. LP (   3) F   3             --     --    150.1  150.0   --       --     --    --
    15. LP (   2) F   4             --     --     90.0  120.0   --       --     --    --
    16. LP (   3) F   4             --     --    150.1   30.0   --       --     --    --
   105. BD*(   1) C   1 - F   2   107.5   90.0   177.4   90.0  69.9    150.5  270.0  78.1


 Second Order Perturbation Theory Analysis of Fock Matrix in NBO Basis

     Threshold for printing:   0.50 kcal/mol
                                                                              E(2)  E(j)-E(i) F(i,j)
         Donor NBO (i)                     Acceptor NBO (j)                 kcal/mol   a.u.    a.u. 
 ===================================================================================================

 within unit  1
   1. BD (   1) C   1 - F   2        /105. BD*(   1) C   1 - F   2            1.91    0.50    0.030
   2. BD (   2) C   1 - F   2        / 17. RY*(   1) C   1                    0.52    2.08    0.029
   2. BD (   2) C   1 - F   2        /105. BD*(   1) C   1 - F   2            1.09    0.86    0.030
   2. BD (   2) C   1 - F   2        /107. BD*(   1) C   1 - F   3            1.62    1.13    0.039
   2. BD (   2) C   1 - F   2        /108. BD*(   1) C   1 - F   4            1.62    1.13    0.039
   3. BD (   1) C   1 - F   3        / 18. RY*(   2) C   1                    0.50    2.24    0.030
   3. BD (   1) C   1 - F   3        /105. BD*(   1) C   1 - F   2            1.32    0.87    0.033
   3. BD (   1) C   1 - F   3        /106. BD*(   2) C   1 - F   2            0.53    1.12    0.022
   3. BD (   1) C   1 - F   3        /108. BD*(   1) C   1 - F   4            1.00    1.14    0.031
   4. BD (   1) C   1 - F   4        / 18. RY*(   2) C   1                    0.50    2.24    0.030
   4. BD (   1) C   1 - F   4        /105. BD*(   1) C   1 - F   2            1.32    0.87    0.033
   4. BD (   1) C   1 - F   4        /106. BD*(   2) C   1 - F   2            0.53    1.12    0.022
   4. BD (   1) C   1 - F   4        /107. BD*(   1) C   1 - F   3            1.00    1.14    0.031
   6. CR (   1) F   2                / 17. RY*(   1) C   1                    1.80   25.64    0.192
   7. CR (   1) F   3                / 18. RY*(   2) C   1                    1.48   25.79    0.175
   7. CR (   1) F   3                /105. BD*(   1) C   1 - F   2            0.95   24.43    0.150
   8. CR (   1) F   4                / 18. RY*(   2) C   1                    1.48   25.79    0.175
   8. CR (   1) F   4                /105. BD*(   1) C   1 - F   2            0.95   24.43    0.150
   9. LP (   1) F   2                / 17. RY*(   1) C   1                    4.63    2.24    0.091
   9. LP (   1) F   2                / 19. RY*(   3) C   1                    0.68    2.90    0.040
   9. LP (   1) F   2                / 21. RY*(   5) C   1                    2.42    3.56    0.083
   9. LP (   1) F   2                / 23. RY*(   7) C   1                    1.43    3.14    0.060
   9. LP (   1) F   2                / 25. RY*(   9) C   1                    0.52    2.71    0.034
  10. LP (   2) F   2                / 18. RY*(   2) C   1                    1.91    1.73    0.052
  10. LP (   2) F   2                / 20. RY*(   4) C   1                    2.00    2.11    0.059
  10. LP (   2) F   2                /107. BD*(   1) C   1 - F   3           11.08    0.63    0.075
  10. LP (   2) F   2                /108. BD*(   1) C   1 - F   4           11.08    0.63    0.075
  11. LP (   1) F   3                / 17. RY*(   1) C   1                    0.88    2.24    0.040
  11. LP (   1) F   3                / 18. RY*(   2) C   1                    3.89    2.39    0.086
  11. LP (   1) F   3                / 20. RY*(   4) C   1                    0.58    2.78    0.036
  11. LP (   1) F   3                / 21. RY*(   5) C   1                    0.63    3.56    0.042
  11. LP (   1) F   3                / 22. RY*(   6) C   1                    1.29    3.56    0.061
  11. LP (   1) F   3                / 23. RY*(   7) C   1                    1.48    3.14    0.061
  11. LP (   1) F   3                /105. BD*(   1) C   1 - F   2            1.88    1.03    0.043
  11. LP (   1) F   3                /106. BD*(   2) C   1 - F   2            0.60    1.27    0.025
  12. LP (   2) F   3                / 19. RY*(   3) C   1                    2.26    2.23    0.064
  12. LP (   2) F   3                /106. BD*(   2) C   1 - F   2           11.32    0.60    0.074
  12. LP (   2) F   3                /108. BD*(   1) C   1 - F   4           10.91    0.63    0.074
  13. LP (   3) F   3                / 17. RY*(   1) C   1                    0.68    1.64    0.031
  13. LP (   3) F   3                / 19. RY*(   3) C   1                    0.83    2.29    0.041
  13. LP (   3) F   3                / 20. RY*(   4) C   1                    0.67    2.17    0.036
  13. LP (   3) F   3                / 22. RY*(   6) C   1                    1.60    2.95    0.065
  13. LP (   3) F   3                /105. BD*(   1) C   1 - F   2           59.62    0.42    0.147
  13. LP (   3) F   3                /107. BD*(   1) C   1 - F   3           12.93    0.69    0.087
  14. LP (   1) F   4                / 17. RY*(   1) C   1                    0.88    2.24    0.040
  14. LP (   1) F   4                / 18. RY*(   2) C   1                    3.89    2.39    0.086
  14. LP (   1) F   4                / 20. RY*(   4) C   1                    0.58    2.78    0.036
  14. LP (   1) F   4                / 21. RY*(   5) C   1                    0.63    3.56    0.042
  14. LP (   1) F   4                / 22. RY*(   6) C   1                    1.29    3.56    0.061
  14. LP (   1) F   4                / 23. RY*(   7) C   1                    1.48    3.14    0.061
  14. LP (   1) F   4                /105. BD*(   1) C   1 - F   2            1.88    1.03    0.043
  14. LP (   1) F   4                /106. BD*(   2) C   1 - F   2            0.60    1.27    0.025
  15. LP (   2) F   4                / 19. RY*(   3) C   1                    2.26    2.23    0.064
  15. LP (   2) F   4                /106. BD*(   2) C   1 - F   2           11.32    0.60    0.074
  15. LP (   2) F   4                /107. BD*(   1) C   1 - F   3           10.91    0.63    0.074
  16. LP (   3) F   4                / 17. RY*(   1) C   1                    0.68    1.64    0.031
  16. LP (   3) F   4                / 19. RY*(   3) C   1                    0.83    2.29    0.041
  16. LP (   3) F   4                / 20. RY*(   4) C   1                    0.67    2.17    0.036
  16. LP (   3) F   4                / 22. RY*(   6) C   1                    1.60    2.95    0.065
  16. LP (   3) F   4                /105. BD*(   1) C   1 - F   2           59.62    0.42    0.147
  16. LP (   3) F   4                /108. BD*(   1) C   1 - F   4           12.93    0.69    0.087
 105. BD*(   1) C   1 - F   2        / 17. RY*(   1) C   1                    2.60    1.22    0.116
 105. BD*(   1) C   1 - F   2        / 19. RY*(   3) C   1                    2.70    1.87    0.147
 105. BD*(   1) C   1 - F   2        / 21. RY*(   5) C   1                    1.06    2.54    0.108
 105. BD*(   1) C   1 - F   2        / 28. RY*(  12) C   1                    0.56    1.48    0.060
 105. BD*(   1) C   1 - F   2        / 55. RY*(  17) F   2                    0.57    2.31    0.076
 105. BD*(   1) C   1 - F   2        /106. BD*(   2) C   1 - F   2           24.89    0.25    0.149
 105. BD*(   1) C   1 - F   2        /107. BD*(   1) C   1 - F   3            6.33    0.27    0.079
 105. BD*(   1) C   1 - F   2        /108. BD*(   1) C   1 - F   4            6.33    0.27    0.079


 Natural Bond Orbitals (Summary):

                                                            Principal Delocalizations
           NBO                        Occupancy    Energy   (geminal,vicinal,remote)
 ====================================================================================
 Molecular unit  1  (CF3)
     1. BD (   1) C   1 - F   2          1.99719    -0.94031  105(g)
     2. BD (   2) C   1 - F   2          1.99015    -1.30506  107(g),108(g),105(g),17(g)
     3. BD (   1) C   1 - F   3          1.98919    -1.31310  105(g),108(g),106(g),18(g)
     4. BD (   1) C   1 - F   4          1.98919    -1.31310  105(g),107(g),106(g),18(g)
     5. CR (   1) C   1                  1.99979   -10.81558   
     6. CR (   1) F   2                  1.99991   -24.86764  17(v)
     7. CR (   1) F   3                  1.99991   -24.86764  18(v),105(v)
     8. CR (   1) F   4                  1.99991   -24.86764  18(v),105(v)
     9. LP (   1) F   2                  1.99142    -1.46612  17(v),21(v),23(v),19(v)
                                                    25(v)
    10. LP (   2) F   2                  1.94026    -0.79934  107(v),108(v),20(v),18(v)
    11. LP (   1) F   3                  1.99142    -1.46614  18(v),105(v),23(v),22(v)
                                                    17(v),21(v),106(v),20(v)
    12. LP (   2) F   3                  1.94026    -0.79934  106(v),108(v),19(v)
    13. LP (   3) F   3                  1.79856    -0.86150  105(v),107(g),22(v),19(v)
                                                    17(v),20(v)
    14. LP (   1) F   4                  1.99142    -1.46614  18(v),105(v),23(v),22(v)
                                                    17(v),21(v),106(v),20(v)
    15. LP (   2) F   4                  1.94026    -0.79934  106(v),107(v),19(v)
    16. LP (   3) F   4                  1.79856    -0.86150  105(v),108(g),22(v),19(v)
                                                    17(v),20(v)
    17. RY*(   1) C   1                  0.01261     0.77581   
    18. RY*(   2) C   1                  0.01173     0.92688   
    19. RY*(   3) C   1                  0.01022     1.43135   
    20. RY*(   4) C   1                  0.00589     1.30919   
    21. RY*(   5) C   1                  0.00353     2.09852   
    22. RY*(   6) C   1                  0.00272     2.08918   
    23. RY*(   7) C   1                  0.00235     1.67185   
    24. RY*(   8) C   1                  0.00000     0.70363   
    25. RY*(   9) C   1                  0.00001     1.24745   
    26. RY*(  10) C   1                  0.00000    16.65647   
    27. RY*(  11) C   1                  0.00000     0.72138   
    28. RY*(  12) C   1                  0.00000     1.03980   
    29. RY*(  13) C   1                  0.00000     0.41271   
    30. RY*(  14) C   1                  0.00000     2.29433   
    31. RY*(  15) C   1                  0.00000     0.69767   
    32. RY*(  16) C   1                  0.00000     2.54170   
    33. RY*(  17) C   1                  0.00001     1.25074   
    34. RY*(  18) C   1                  0.00000     2.54780   
    35. RY*(  19) C   1                  0.00000     5.21711   
    36. RY*(  20) C   1                  0.00000     2.28532   
    37. RY*(  21) C   1                  0.00000     1.45177   
    38. RY*(  22) C   1                  0.00000     2.13883   
    39. RY*(   1) F   2                  0.00084     0.44188   
    40. RY*(   2) F   2                  0.00068     2.95580   
    41. RY*(   3) F   2                  0.00028     0.88557   
    42. RY*(   4) F   2                  0.00017     0.80383   
    43. RY*(   5) F   2                  0.00013     2.28168   
    44. RY*(   6) F   2                  0.00008     1.26970   
    45. RY*(   7) F   2                  0.00004     1.65519   
    46. RY*(   8) F   2                  0.00001     1.84798   
    47. RY*(   9) F   2                  0.00000     4.66620   
    48. RY*(  10) F   2                  0.00000    66.20570   
    49. RY*(  11) F   2                  0.00000     1.11483   
    50. RY*(  12) F   2                  0.00000     5.20012   
    51. RY*(  13) F   2                  0.00000     5.73274   
    52. RY*(  14) F   2                  0.00000     8.15055   
    53. RY*(  15) F   2                  0.00000     1.79006   
    54. RY*(  16) F   2                  0.00000     8.64154   
    55. RY*(  17) F   2                  0.00000     1.87327   
    56. RY*(  18) F   2                  0.00000     8.58289   
    57. RY*(  19) F   2                  0.00000     1.09863   
    58. RY*(  20) F   2                  0.00000     8.68935   
    59. RY*(  21) F   2                  0.00000     1.72738   
    60. RY*(  22) F   2                  0.00000     8.41019   
    61. RY*(   1) F   3                  0.00084     0.44188   
    62. RY*(   2) F   3                  0.00068     2.95033   
    63. RY*(   3) F   3                  0.00027     0.86643   
    64. RY*(   4) F   3                  0.00017     0.82775   
    65. RY*(   5) F   3                  0.00013     2.28168   
    66. RY*(   6) F   3                  0.00008     1.26970   
    67. RY*(   7) F   3                  0.00004     1.65568   
    68. RY*(   8) F   3                  0.00000     5.42814   
    69. RY*(   9) F   3                  0.00001     1.45501   
    70. RY*(  10) F   3                  0.00000     5.51418   
    71. RY*(  11) F   3                  0.00000     1.16799   
    72. RY*(  12) F   3                  0.00000     5.14377   
    73. RY*(  13) F   3                  0.00000    66.20374   
    74. RY*(  14) F   3                  0.00000     8.51004   
    75. RY*(  15) F   3                  0.00000     1.91107   
    76. RY*(  16) F   3                  0.00000     8.61450   
    77. RY*(  17) F   3                  0.00000     1.74390   
    78. RY*(  18) F   3                  0.00000     8.63712   
    79. RY*(  19) F   3                  0.00000     1.07199   
    80. RY*(  20) F   3                  0.00000     8.32567   
    81. RY*(  21) F   3                  0.00000     1.60062   
    82. RY*(  22) F   3                  0.00000     8.40388   
    83. RY*(   1) F   4                  0.00084     0.44188   
    84. RY*(   2) F   4                  0.00068     2.95033   
    85. RY*(   3) F   4                  0.00027     0.86643   
    86. RY*(   4) F   4                  0.00017     0.82775   
    87. RY*(   5) F   4                  0.00013     2.28168   
    88. RY*(   6) F   4                  0.00008     1.26970   
    89. RY*(   7) F   4                  0.00004     1.65568   
    90. RY*(   8) F   4                  0.00000     5.42814   
    91. RY*(   9) F   4                  0.00001     1.45501   
    92. RY*(  10) F   4                  0.00000     5.51418   
    93. RY*(  11) F   4                  0.00000     1.16799   
    94. RY*(  12) F   4                  0.00000     5.14377   
    95. RY*(  13) F   4                  0.00000    66.20374   
    96. RY*(  14) F   4                  0.00000     8.51004   
    97. RY*(  15) F   4                  0.00000     1.91107   
    98. RY*(  16) F   4                  0.00000     8.61450   
    99. RY*(  17) F   4                  0.00000     1.74390   
   100. RY*(  18) F   4                  0.00000     8.63712   
   101. RY*(  19) F   4                  0.00000     1.07199   
   102. RY*(  20) F   4                  0.00000     8.32567   
   103. RY*(  21) F   4                  0.00000     1.60062   
   104. RY*(  22) F   4                  0.00000     8.40388   
   105. BD*(   1) C   1 - F   2          0.36353    -0.44093  106(g),107(g),108(g),19(g)
                                                    17(g),21(g),55(g),28(g)
   106. BD*(   2) C   1 - F   2          0.07732    -0.19455   
   107. BD*(   1) C   1 - F   3          0.07297    -0.17276   
   108. BD*(   1) C   1 - F   4          0.07297    -0.17276   
       -------------------------------
              Total Lewis   31.35742  ( 97.9919%)
        Valence non-Lewis    0.58678  (  1.8337%)
        Rydberg non-Lewis    0.05579  (  0.1744%)
       -------------------------------
            Total unit  1   32.00000  (100.0000%)
           Charge unit  1    1.00000
 Leave Link  607 at Wed Sep  5 16:47:20 2018, MaxMem=   805306368 cpu:               7.1 elap:               0.9
 (Enter /home/g16/l9999.exe)
 1\1\GINC-PC13\Stability\RB3LYP\6-311+G(2d,p)\C1F3(1+)\MASKER\05-Sep-20
 18\0\\#p b3lyp/6-311+g(2d,p) pop=(full,nboread) stable=opt g09def\\CF3
 -c1-1sp+ 1\\1,1\C,0,0.,0.,0.325941\F,0,0.,1.260582,-0.072431\F,0,1.091
 696,-0.630291,-0.072431\F,0,-1.091696,-0.630291,-0.072431\\Version=ES6
 4L-G16RevA.03\State=1-A1\HF=-337.2629573\RMSD=7.028e-09\Dipole=0.,0.,0
 .5704866\Quadrupole=-0.1073424,-0.1073424,0.2146847,0.,0.,0.\PG=C03V [
 C3(C1),3SGV(F1)]\\@


 SCIENCE IS LONG AND LIFE IS SHORT.

                     DON MOSER IN THE FEBRUARY 1979 SMITHSONIAN
 Job cpu time:       0 days  0 hours  0 minutes 49.4 seconds.
 Elapsed time:       0 days  0 hours  0 minutes  6.2 seconds.
 File lengths (MBytes):  RWF=     99 Int=      0 D2E=      0 Chk=      3 Scr=      1
 Normal termination of Gaussian 16 at Wed Sep  5 16:47:20 2018.
