 Entering Gaussian System, Link 0=g16
 Input=CCN-c1-1sp.gjf
 Output=CCN-c1-1sp.log
 Initial command:
 /home/g16/l1.exe "/home/masker/scratch/Gau-26992.inp" -scrdir="/home/masker/scratch/"
 Entering Link 1 = /home/g16/l1.exe PID=     26993.
  
 Copyright (c) 1988,1990,1992,1993,1995,1998,2003,2009,2016,
            Gaussian, Inc.  All Rights Reserved.
  
 This is part of the Gaussian(R) 16 program.  It is based on
 the Gaussian(R) 09 system (copyright 2009, Gaussian, Inc.),
 the Gaussian(R) 03 system (copyright 2003, Gaussian, Inc.),
 the Gaussian(R) 98 system (copyright 1998, Gaussian, Inc.),
 the Gaussian(R) 94 system (copyright 1995, Gaussian, Inc.),
 the Gaussian 92(TM) system (copyright 1992, Gaussian, Inc.),
 the Gaussian 90(TM) system (copyright 1990, Gaussian, Inc.),
 the Gaussian 88(TM) system (copyright 1988, Gaussian, Inc.),
 the Gaussian 86(TM) system (copyright 1986, Carnegie Mellon
 University), and the Gaussian 82(TM) system (copyright 1983,
 Carnegie Mellon University). Gaussian is a federally registered
 trademark of Gaussian, Inc.
  
 This software contains proprietary and confidential information,
 including trade secrets, belonging to Gaussian, Inc.
  
 This software is provided under written license and may be
 used, copied, transmitted, or stored only in accord with that
 written license.
  
 The following legend is applicable only to US Government
 contracts under FAR:
  
                    RESTRICTED RIGHTS LEGEND
  
 Use, reproduction and disclosure by the US Government is
 subject to restrictions as set forth in subparagraphs (a)
 and (c) of the Commercial Computer Software - Restricted
 Rights clause in FAR 52.227-19.
  
 Gaussian, Inc.
 340 Quinnipiac St., Bldg. 40, Wallingford CT 06492
  
  
 ---------------------------------------------------------------
 Warning -- This program may not be used in any manner that
 competes with the business of Gaussian, Inc. or will provide
 assistance to any competitor of Gaussian, Inc.  The licensee
 of this program is prohibited from giving any competitor of
 Gaussian, Inc. access to this program.  By using this program,
 the user acknowledges that Gaussian, Inc. is engaged in the
 business of creating and licensing software in the field of
 computational chemistry and represents and warrants to the
 licensee that it is not a competitor of Gaussian, Inc. and that
 it will not use this program in any manner prohibited above.
 ---------------------------------------------------------------
  

 Cite this work as:
 Gaussian 16, Revision A.03,
 M. J. Frisch, G. W. Trucks, H. B. Schlegel, G. E. Scuseria, 
 M. A. Robb, J. R. Cheeseman, G. Scalmani, V. Barone, 
 G. A. Petersson, H. Nakatsuji, X. Li, M. Caricato, A. V. Marenich, 
 J. Bloino, B. G. Janesko, R. Gomperts, B. Mennucci, H. P. Hratchian, 
 J. V. Ortiz, A. F. Izmaylov, J. L. Sonnenberg, D. Williams-Young, 
 F. Ding, F. Lipparini, F. Egidi, J. Goings, B. Peng, A. Petrone, 
 T. Henderson, D. Ranasinghe, V. G. Zakrzewski, J. Gao, N. Rega, 
 G. Zheng, W. Liang, M. Hada, M. Ehara, K. Toyota, R. Fukuda, 
 J. Hasegawa, M. Ishida, T. Nakajima, Y. Honda, O. Kitao, H. Nakai, 
 T. Vreven, K. Throssell, J. A. Montgomery, Jr., J. E. Peralta, 
 F. Ogliaro, M. J. Bearpark, J. J. Heyd, E. N. Brothers, K. N. Kudin, 
 V. N. Staroverov, T. A. Keith, R. Kobayashi, J. Normand, 
 K. Raghavachari, A. P. Rendell, J. C. Burant, S. S. Iyengar, 
 J. Tomasi, M. Cossi, J. M. Millam, M. Klene, C. Adamo, R. Cammi, 
 J. W. Ochterski, R. L. Martin, K. Morokuma, O. Farkas, 
 J. B. Foresman, and D. J. Fox, Gaussian, Inc., Wallingford CT, 2016.
 
 ******************************************
 Gaussian 16:  ES64L-G16RevA.03 25-Dec-2016
                 5-Sep-2018 
 ******************************************
 %nprocshared=8
 Will use up to    8 processors via shared memory.
 %mem=6GB
 %chk=CCN-c1-1sp.chk
 -----------------------------------------------------------
 #p b3lyp/6-311+g(2d,p) pop=(full,nboread) stable=opt g09def
 -----------------------------------------------------------
 1/38=1,158=3,167=1,172=1/1;
 2/12=2,17=6,18=5,40=1/2;
 3/5=4,6=6,7=112,11=2,25=1,27=10,30=1,74=-5,75=-4,158=3/1,2,3;
 4/60=-1/1;
 5/5=2,38=5,87=10/2;
 6/7=3,28=1,40=2,87=10/1,7;
 8/6=1,10=90,11=11,87=10/1;
 9/8=-3,42=1,46=1,87=10/14;
 5/5=2,8=3,17=40,38=5,87=10/8(-2);
 6/7=3,28=1,40=2,87=10/1,7;
 99/5=1,9=1/99;
 Using 2006 physical constants.
 Leave Link    1 at Wed Sep  5 16:43:29 2018, MaxMem=   805306368 cpu:               0.3 elap:               0.0
 (Enter /home/g16/l101.exe)
 ------------
 CCN-c1-1sp 1
 ------------
 Symbolic Z-matrix:
 Charge =  0 Multiplicity = 2
 C                    -0.30746  0.         0.00007 
 C                    -1.06019  -1.29325   0.00001 
 H                    -0.39539  -2.15559   0.00149 
 H                    -1.71381  -1.35803   0.87794 
 H                    -1.71136  -1.35936  -0.87968 
 C                    -1.05999   1.29336  -0.00002 
 H                    -1.7128    1.3586   -0.87854 
 H                    -1.71198   1.35921   0.87907 
 H                    -0.39508   2.1556   -0.00062 
 C                     1.08009  -0.00015   0.00001 
 N                     2.24653  -0.00002  -0.00002 
 
 ITRead=  0  0  0  0  0  0  0  0  0  0  0
 MicOpt= -1 -1 -1 -1 -1 -1 -1 -1 -1 -1 -1
 NAtoms=     11 NQM=       11 NQMF=       0 NMMI=      0 NMMIF=      0
                NMic=       0 NMicF=      0.
                    Isotopes and Nuclear Properties:
 (Nuclear quadrupole moments (NQMom) in fm**2, nuclear magnetic moments (NMagM)
  in nuclear magnetons)

  Atom         1           2           3           4           5           6           7           8           9          10
 IAtWgt=          12          12           1           1           1          12           1           1           1          12
 AtmWgt=  12.0000000  12.0000000   1.0078250   1.0078250   1.0078250  12.0000000   1.0078250   1.0078250   1.0078250  12.0000000
 NucSpn=           0           0           1           1           1           0           1           1           1           0
 AtZEff=  -0.0000000  -0.0000000  -0.0000000  -0.0000000  -0.0000000  -0.0000000  -0.0000000  -0.0000000  -0.0000000  -0.0000000
 NQMom=    0.0000000   0.0000000   0.0000000   0.0000000   0.0000000   0.0000000   0.0000000   0.0000000   0.0000000   0.0000000
 NMagM=    0.0000000   0.0000000   2.7928460   2.7928460   2.7928460   0.0000000   2.7928460   2.7928460   2.7928460   0.0000000
 AtZNuc=   6.0000000   6.0000000   1.0000000   1.0000000   1.0000000   6.0000000   1.0000000   1.0000000   1.0000000   6.0000000

  Atom        11
 IAtWgt=          14
 AtmWgt=  14.0030740
 NucSpn=           2
 AtZEff=  -0.0000000
 NQMom=    2.0440000
 NMagM=    0.4037610
 AtZNuc=   7.0000000
 Leave Link  101 at Wed Sep  5 16:43:29 2018, MaxMem=   805306368 cpu:               0.3 elap:               0.0
 (Enter /home/g16/l202.exe)
                          Input orientation:                          
 ---------------------------------------------------------------------
 Center     Atomic      Atomic             Coordinates (Angstroms)
 Number     Number       Type             X           Y           Z
 ---------------------------------------------------------------------
      1          6           0       -0.307459   -0.000002    0.000072
      2          6           0       -1.060186   -1.293250    0.000012
      3          1           0       -0.395393   -2.155588    0.001489
      4          1           0       -1.713808   -1.358028    0.877941
      5          1           0       -1.711363   -1.359357   -0.879677
      6          6           0       -1.059993    1.293357   -0.000018
      7          1           0       -1.712799    1.358600   -0.878543
      8          1           0       -1.711976    1.359207    0.879072
      9          1           0       -0.395076    2.155601   -0.000620
     10          6           0        1.080092   -0.000153    0.000013
     11          7           0        2.246527   -0.000020   -0.000018
 ---------------------------------------------------------------------
                    Distance matrix (angstroms):
                    1          2          3          4          5
     1  C    0.000000
     2  C    1.496358   0.000000
     3  H    2.157379   1.088843   0.000000
     4  H    2.143060   1.096438   1.772706   0.000000
     5  H    2.143070   1.096474   1.772629   1.757620   0.000000
     6  C    1.496357   2.586607   3.512395   2.868471   2.869665
     7  H    2.143069   2.868810   3.854806   3.235012   2.717958
     8  H    2.143072   2.869339   3.854520   2.717236   3.237868
     9  H    2.157383   3.512399   4.311190   3.854415   3.854904
    10  C    1.387551   2.500578   2.612079   3.228074   3.226997
    11  N    2.553986   3.550605   3.409724   4.277762   4.276271
                    6          7          8          9         10
     6  C    0.000000
     7  H    1.096457   0.000000
     8  H    1.096457   1.757615   0.000000
     9  H    1.088843   1.772668   1.772661   0.000000
    10  C    2.500626   3.227741   3.227421   2.612163   0.000000
    11  N    3.550479   4.277139   4.276686   3.409511   1.166435
                   11
    11  N    0.000000
 Stoichiometry    C4H6N(2)
 Framework group  C1[X(C4H6N)]
 Deg. of freedom    27
 Full point group                 C1      NOp   1
 Largest Abelian subgroup         C1      NOp   1
 Largest concise Abelian subgroup C1      NOp   1
                         Standard orientation:                         
 ---------------------------------------------------------------------
 Center     Atomic      Atomic             Coordinates (Angstroms)
 Number     Number       Type             X           Y           Z
 ---------------------------------------------------------------------
      1          6           0        0.307459   -0.000002   -0.000072
      2          6           0        1.060186   -1.293250   -0.000012
      3          1           0        0.395393   -2.155588   -0.001489
      4          1           0        1.713808   -1.358028   -0.877941
      5          1           0        1.711363   -1.359357    0.879677
      6          6           0        1.059993    1.293357    0.000018
      7          1           0        1.712799    1.358600    0.878543
      8          1           0        1.711976    1.359207   -0.879072
      9          1           0        0.395075    2.155601    0.000620
     10          6           0       -1.080092   -0.000153   -0.000013
     11          7           0       -2.246527   -0.000021    0.000018
 ---------------------------------------------------------------------
 Rotational constants (GHZ):           8.4137812           3.9737026           2.7918450
 Leave Link  202 at Wed Sep  5 16:43:29 2018, MaxMem=   805306368 cpu:               0.0 elap:               0.0
 (Enter /home/g16/l301.exe)
 Standard basis: 6-311+G(2d,p) (5D, 7F)
 Ernie: Thresh=  0.10000D-02 Tol=  0.10000D-05 Strict=F.
 There are   181 symmetry adapted cartesian basis functions of A   symmetry.
 There are   171 symmetry adapted basis functions of A   symmetry.
   171 basis functions,   258 primitive gaussians,   181 cartesian basis functions
    19 alpha electrons       18 beta electrons
       nuclear repulsion energy       149.7762337890 Hartrees.
 IExCor=  402 DFT=T Ex+Corr=B3LYP ExCW=0 ScaHFX=  0.200000
 ScaDFX=  0.800000  0.720000  1.000000  0.810000 ScalE2=  1.000000  1.000000
 IRadAn=      4 IRanWt=     -1 IRanGd=            0 ICorTp=0 IEmpDi=  4
 NAtoms=   11 NActive=   11 NUniq=   11 SFac= 1.00D+00 NAtFMM=   60 NAOKFM=F Big=F
 Integral buffers will be    131072 words long.
 Raffenetti 2 integral format.
 Two-electron integral symmetry is turned on.
 Leave Link  301 at Wed Sep  5 16:43:29 2018, MaxMem=   805306368 cpu:               0.1 elap:               0.0
 (Enter /home/g16/l302.exe)
 NPDir=0 NMtPBC=     1 NCelOv=     1 NCel=       1 NClECP=     1 NCelD=      1
         NCelK=      1 NCelE2=     1 NClLst=     1 CellRange=     0.0.
 One-electron integrals computed using PRISM.
 One-electron integral symmetry used in STVInt
 NBasis=   171 RedAO= T EigKep=  1.60D-05  NBF=   171
 NBsUse=   171 1.00D-06 EigRej= -1.00D+00 NBFU=   171
 Precomputing XC quadrature grid using
 IXCGrd= 4 IRadAn=           4 IRanWt=          -1 IRanGd=           0 AccXCQ= 1.00D-10.
 Generated NRdTot=       0 NPtTot=           0 NUsed=           0 NTot=          32
 NSgBfM=   181   181   181   181   181 MxSgAt=    11 MxSgA2=    11.
 Leave Link  302 at Wed Sep  5 16:43:29 2018, MaxMem=   805306368 cpu:               0.8 elap:               0.1
 (Enter /home/g16/l303.exe)
 DipDrv:  MaxL=1.
 Leave Link  303 at Wed Sep  5 16:43:29 2018, MaxMem=   805306368 cpu:               0.1 elap:               0.0
 (Enter /home/g16/l401.exe)
 ExpMin= 4.38D-02 ExpMax= 6.29D+03 ExpMxC= 9.49D+02 IAcc=2 IRadAn=         4 AccDes= 0.00D+00
 Harris functional with IExCor=  402 and IRadAn=      -1 diagonalized for initial guess.
 HarFok:  IExCor=  402 AccDes= 0.00D+00 IRadAn=        -1 IDoV= 1 UseB2=F ITyADJ=14
 ICtDFT=  3500011 ScaDFX=  1.000000  1.000000  1.000000  1.000000
 FoFCou: FMM=F IPFlag=           0 FMFlag=      100000 FMFlg1=           0
         NFxFlg=           0 DoJE=T BraDBF=F KetDBF=T FulRan=T
         wScrn=  0.000000 ICntrl=       500 IOpCl=  0 I1Cent=   200000004 NGrid=           0
         NMat0=    1 NMatS0=      1 NMatT0=    0 NMatD0=    1 NMtDS0=    0 NMtDT0=    0
 Petite list used in FoFCou.
 Harris En= -210.827632332396    
 JPrj=0 DoOrth=F DoCkMO=F.
 Initial guess <Sx>= 0.0000 <Sy>= 0.0000 <Sz>= 0.5000 <S**2>= 0.7500 S= 0.5000
 Leave Link  401 at Wed Sep  5 16:43:29 2018, MaxMem=   805306368 cpu:               1.3 elap:               0.2
 (Enter /home/g16/l502.exe)
 Keep R1 and R2 ints in memory in canonical form, NReq=224328399.
 FoFCou: FMM=F IPFlag=           0 FMFlag=           0 FMFlg1=           0
         NFxFlg=           0 DoJE=F BraDBF=F KetDBF=F FulRan=T
         wScrn=  0.000000 ICntrl=       600 IOpCl=  0 I1Cent=           0 NGrid=           0
         NMat0=    1 NMatS0=  14706 NMatT0=    0 NMatD0=    1 NMtDS0=    0 NMtDT0=    0
 Symmetry not used in FoFCou.
 Two-electron integral symmetry not used.
 UHF open shell SCF:
 Using DIIS extrapolation, IDIIS=  1040.
 NGot=   805306368 LenX=   588956427 LenY=   588923225
 Requested convergence on RMS density matrix=1.00D-08 within 128 cycles.
 Requested convergence on MAX density matrix=1.00D-06.
 Requested convergence on             energy=1.00D-06.
 No special actions if energy rises.

 Cycle   1  Pass 1  IDiag  1:
 E= -210.642100076943    
 DIIS: error= 4.87D-02 at cycle   1 NSaved=   1.
 NSaved= 1 IEnMin= 1 EnMin= -210.642100076943     IErMin= 1 ErrMin= 4.87D-02
 ErrMax= 4.87D-02  0.00D+00 EMaxC= 1.00D-01 BMatC= 7.01D-01 BMatP= 7.01D-01
 IDIUse=3 WtCom= 5.13D-01 WtEn= 4.87D-01
 Coeff-Com:  0.100D+01
 Coeff-En:   0.100D+01
 Coeff:      0.100D+01
 Gap=     0.269 Goal=   None    Shift=    0.000
 Gap=     0.178 Goal=   None    Shift=    0.000
 GapD=    0.178 DampG=1.000 DampE=0.500 DampFc=0.5000 IDamp=-1.
 Damping current iteration by 5.00D-01
 RMSDP=5.88D-03 MaxDP=2.57D-01              OVMax= 2.26D-01

 Cycle   2  Pass 1  IDiag  1:
 E= -210.707984203752     Delta-E=       -0.065884126809 Rises=F Damp=T
 DIIS: error= 9.89D-03 at cycle   2 NSaved=   2.
 NSaved= 2 IEnMin= 2 EnMin= -210.707984203752     IErMin= 2 ErrMin= 9.89D-03
 ErrMax= 9.89D-03  0.00D+00 EMaxC= 1.00D-01 BMatC= 6.12D-02 BMatP= 7.01D-01
 IDIUse=3 WtCom= 9.01D-01 WtEn= 9.89D-02
 Coeff-Com:  0.952D-01 0.905D+00
 Coeff-En:   0.170D+00 0.830D+00
 Coeff:      0.103D+00 0.897D+00
 Gap=     0.219 Goal=   None    Shift=    0.000
 Gap=     0.218 Goal=   None    Shift=    0.000
 RMSDP=1.23D-03 MaxDP=3.83D-02 DE=-6.59D-02 OVMax= 1.99D-01

 Cycle   3  Pass 1  IDiag  1:
 E= -210.772980189006     Delta-E=       -0.064995985254 Rises=F Damp=F
 DIIS: error= 1.83D-02 at cycle   3 NSaved=   3.
 NSaved= 3 IEnMin= 3 EnMin= -210.772980189006     IErMin= 2 ErrMin= 9.89D-03
 ErrMax= 1.83D-02  0.00D+00 EMaxC= 1.00D-01 BMatC= 1.35D-01 BMatP= 6.12D-02
 IDIUse=2 WtCom= 0.00D+00 WtEn= 1.00D+00
 Coeff-En:   0.000D+00 0.000D+00 0.100D+01
 Coeff:      0.000D+00 0.000D+00 0.100D+01
 Gap=     0.234 Goal=   None    Shift=    0.000
 Gap=     0.177 Goal=   None    Shift=    0.000
 RMSDP=2.33D-03 MaxDP=6.10D-02 DE=-6.50D-02 OVMax= 2.56D-01

 Cycle   4  Pass 1  IDiag  1:
 E= -210.594749120063     Delta-E=        0.178231068944 Rises=F Damp=F
 DIIS: error= 4.39D-02 at cycle   4 NSaved=   4.
 NSaved= 4 IEnMin= 3 EnMin= -210.772980189006     IErMin= 2 ErrMin= 9.89D-03
 ErrMax= 4.39D-02  0.00D+00 EMaxC= 1.00D-01 BMatC= 9.06D-01 BMatP= 6.12D-02
 IDIUse=2 WtCom= 0.00D+00 WtEn= 1.00D+00
 Coeff-En:   0.000D+00 0.000D+00 0.812D+00 0.188D+00
 Coeff:      0.000D+00 0.000D+00 0.812D+00 0.188D+00
 Gap=     0.224 Goal=   None    Shift=    0.000
 Gap=     0.225 Goal=   None    Shift=    0.000
 RMSDP=1.24D-03 MaxDP=2.97D-02 DE= 1.78D-01 OVMax= 1.23D-01

 Cycle   5  Pass 1  IDiag  1:
 E= -210.782825570059     Delta-E=       -0.188076449997 Rises=F Damp=F
 DIIS: error= 1.43D-02 at cycle   5 NSaved=   5.
 NSaved= 5 IEnMin= 5 EnMin= -210.782825570059     IErMin= 2 ErrMin= 9.89D-03
 ErrMax= 1.43D-02  0.00D+00 EMaxC= 1.00D-01 BMatC= 9.10D-02 BMatP= 6.12D-02
 IDIUse=2 WtCom= 0.00D+00 WtEn= 1.00D+00
 Coeff-En:   0.000D+00 0.000D+00 0.431D+00 0.000D+00 0.569D+00
 Coeff:      0.000D+00 0.000D+00 0.431D+00 0.000D+00 0.569D+00
 Gap=     0.223 Goal=   None    Shift=    0.000
 Gap=     0.219 Goal=   None    Shift=    0.000
 RMSDP=5.98D-04 MaxDP=1.58D-02 DE=-1.88D-01 OVMax= 6.26D-02

 Cycle   6  Pass 1  IDiag  1:
 E= -210.802495421579     Delta-E=       -0.019669851520 Rises=F Damp=F
 DIIS: error= 2.18D-03 at cycle   6 NSaved=   6.
 NSaved= 6 IEnMin= 6 EnMin= -210.802495421579     IErMin= 6 ErrMin= 2.18D-03
 ErrMax= 2.18D-03  0.00D+00 EMaxC= 1.00D-01 BMatC= 1.69D-03 BMatP= 6.12D-02
 IDIUse=3 WtCom= 9.78D-01 WtEn= 2.18D-02
 Coeff-Com: -0.786D-02-0.138D-02 0.258D-01-0.227D-01 0.204D+00 0.802D+00
 Coeff-En:   0.000D+00 0.000D+00 0.000D+00 0.000D+00 0.000D+00 0.100D+01
 Coeff:     -0.769D-02-0.135D-02 0.252D-01-0.222D-01 0.199D+00 0.807D+00
 Gap=     0.221 Goal=   None    Shift=    0.000
 Gap=     0.219 Goal=   None    Shift=    0.000
 RMSDP=8.81D-05 MaxDP=3.18D-03 DE=-1.97D-02 OVMax= 1.37D-02

 Cycle   7  Pass 1  IDiag  1:
 E= -210.802884049523     Delta-E=       -0.000388627943 Rises=F Damp=F
 DIIS: error= 4.42D-04 at cycle   7 NSaved=   7.
 NSaved= 7 IEnMin= 7 EnMin= -210.802884049523     IErMin= 7 ErrMin= 4.42D-04
 ErrMax= 4.42D-04  0.00D+00 EMaxC= 1.00D-01 BMatC= 5.56D-05 BMatP= 1.69D-03
 IDIUse=3 WtCom= 9.96D-01 WtEn= 4.42D-03
 Coeff-Com: -0.397D-02 0.437D-02-0.487D-01-0.315D-02-0.194D-01 0.351D+00
 Coeff-Com:  0.720D+00
 Coeff-En:   0.000D+00 0.000D+00 0.000D+00 0.000D+00 0.000D+00 0.000D+00
 Coeff-En:   0.100D+01
 Coeff:     -0.395D-02 0.435D-02-0.485D-01-0.313D-02-0.194D-01 0.350D+00
 Coeff:      0.721D+00
 Gap=     0.222 Goal=   None    Shift=    0.000
 Gap=     0.220 Goal=   None    Shift=    0.000
 RMSDP=3.16D-05 MaxDP=9.03D-04 DE=-3.89D-04 OVMax= 2.40D-03

 Cycle   8  Pass 1  IDiag  1:
 E= -210.802905297065     Delta-E=       -0.000021247543 Rises=F Damp=F
 DIIS: error= 1.51D-04 at cycle   8 NSaved=   8.
 NSaved= 8 IEnMin= 8 EnMin= -210.802905297065     IErMin= 8 ErrMin= 1.51D-04
 ErrMax= 1.51D-04  0.00D+00 EMaxC= 1.00D-01 BMatC= 8.23D-06 BMatP= 5.56D-05
 IDIUse=3 WtCom= 9.98D-01 WtEn= 1.51D-03
 Coeff-Com:  0.482D-03-0.212D-03-0.465D-01 0.143D-01-0.115D+00-0.644D-01
 Coeff-Com:  0.280D+00 0.931D+00
 Coeff-En:   0.000D+00 0.000D+00 0.000D+00 0.000D+00 0.000D+00 0.000D+00
 Coeff-En:   0.000D+00 0.100D+01
 Coeff:      0.482D-03-0.212D-03-0.464D-01 0.143D-01-0.115D+00-0.643D-01
 Coeff:      0.280D+00 0.931D+00
 Gap=     0.222 Goal=   None    Shift=    0.000
 Gap=     0.220 Goal=   None    Shift=    0.000
 RMSDP=2.31D-05 MaxDP=1.01D-03 DE=-2.12D-05 OVMax= 2.26D-03

 Cycle   9  Pass 1  IDiag  1:
 E= -210.802912005114     Delta-E=       -0.000006708049 Rises=F Damp=F
 DIIS: error= 7.00D-05 at cycle   9 NSaved=   9.
 NSaved= 9 IEnMin= 9 EnMin= -210.802912005114     IErMin= 9 ErrMin= 7.00D-05
 ErrMax= 7.00D-05  0.00D+00 EMaxC= 1.00D-01 BMatC= 1.11D-06 BMatP= 8.23D-06
 IDIUse=1 WtCom= 1.00D+00 WtEn= 0.00D+00
 Coeff-Com:  0.641D-03-0.168D-03 0.373D-02-0.736D-03 0.449D-03-0.727D-01
 Coeff-Com: -0.443D-01 0.974D-01 0.102D+01
 Coeff:      0.641D-03-0.168D-03 0.373D-02-0.736D-03 0.449D-03-0.727D-01
 Coeff:     -0.443D-01 0.974D-01 0.102D+01
 Gap=     0.222 Goal=   None    Shift=    0.000
 Gap=     0.220 Goal=   None    Shift=    0.000
 RMSDP=8.96D-06 MaxDP=4.40D-04 DE=-6.71D-06 OVMax= 9.50D-04

 Cycle  10  Pass 1  IDiag  1:
 E= -210.802912934436     Delta-E=       -0.000000929322 Rises=F Damp=F
 DIIS: error= 2.37D-05 at cycle  10 NSaved=  10.
 NSaved=10 IEnMin=10 EnMin= -210.802912934436     IErMin=10 ErrMin= 2.37D-05
 ErrMax= 2.37D-05  0.00D+00 EMaxC= 1.00D-01 BMatC= 1.69D-07 BMatP= 1.11D-06
 IDIUse=1 WtCom= 1.00D+00 WtEn= 0.00D+00
 Coeff-Com: -0.154D-04 0.126D-04 0.686D-02-0.176D-02 0.157D-01 0.427D-02
 Coeff-Com: -0.626D-01-0.155D+00 0.216D+00 0.976D+00
 Coeff:     -0.154D-04 0.126D-04 0.686D-02-0.176D-02 0.157D-01 0.427D-02
 Coeff:     -0.626D-01-0.155D+00 0.216D+00 0.976D+00
 Gap=     0.222 Goal=   None    Shift=    0.000
 Gap=     0.220 Goal=   None    Shift=    0.000
 RMSDP=4.56D-06 MaxDP=2.41D-04 DE=-9.29D-07 OVMax= 4.11D-04

 Cycle  11  Pass 1  IDiag  1:
 E= -210.802913100117     Delta-E=       -0.000000165680 Rises=F Damp=F
 DIIS: error= 1.10D-05 at cycle  11 NSaved=  11.
 NSaved=11 IEnMin=11 EnMin= -210.802913100117     IErMin=11 ErrMin= 1.10D-05
 ErrMax= 1.10D-05  0.00D+00 EMaxC= 1.00D-01 BMatC= 2.77D-08 BMatP= 1.69D-07
 IDIUse=1 WtCom= 1.00D+00 WtEn= 0.00D+00
 Coeff-Com: -0.712D-04 0.838D-04 0.130D-02-0.750D-03 0.458D-02 0.106D-01
 Coeff-Com: -0.615D-03-0.365D-01-0.152D+00 0.971D-01 0.108D+01
 Coeff:     -0.712D-04 0.838D-04 0.130D-02-0.750D-03 0.458D-02 0.106D-01
 Coeff:     -0.615D-03-0.365D-01-0.152D+00 0.971D-01 0.108D+01
 Gap=     0.222 Goal=   None    Shift=    0.000
 Gap=     0.220 Goal=   None    Shift=    0.000
 RMSDP=1.81D-06 MaxDP=8.91D-05 DE=-1.66D-07 OVMax= 1.65D-04

 Cycle  12  Pass 1  IDiag  1:
 E= -210.802913120493     Delta-E=       -0.000000020376 Rises=F Damp=F
 DIIS: error= 2.88D-06 at cycle  12 NSaved=  12.
 NSaved=12 IEnMin=12 EnMin= -210.802913120493     IErMin=12 ErrMin= 2.88D-06
 ErrMax= 2.88D-06  0.00D+00 EMaxC= 1.00D-01 BMatC= 2.27D-09 BMatP= 2.77D-08
 IDIUse=1 WtCom= 1.00D+00 WtEn= 0.00D+00
 Coeff-Com: -0.374D-05-0.136D-04-0.496D-03 0.199D-03-0.130D-02 0.988D-03
 Coeff-Com:  0.289D-02 0.758D-02-0.192D-01-0.589D-01 0.496D-01 0.102D+01
 Coeff:     -0.374D-05-0.136D-04-0.496D-03 0.199D-03-0.130D-02 0.988D-03
 Coeff:      0.289D-02 0.758D-02-0.192D-01-0.589D-01 0.496D-01 0.102D+01
 Gap=     0.222 Goal=   None    Shift=    0.000
 Gap=     0.220 Goal=   None    Shift=    0.000
 RMSDP=3.92D-07 MaxDP=1.95D-05 DE=-2.04D-08 OVMax= 3.91D-05

 Cycle  13  Pass 1  IDiag  1:
 E= -210.802913121567     Delta-E=       -0.000000001074 Rises=F Damp=F
 DIIS: error= 1.23D-06 at cycle  13 NSaved=  13.
 NSaved=13 IEnMin=13 EnMin= -210.802913121567     IErMin=13 ErrMin= 1.23D-06
 ErrMax= 1.23D-06  0.00D+00 EMaxC= 1.00D-01 BMatC= 3.65D-10 BMatP= 2.27D-09
 IDIUse=1 WtCom= 1.00D+00 WtEn= 0.00D+00
 Coeff-Com:  0.402D-05-0.130D-04-0.204D-03 0.106D-03-0.621D-03-0.830D-03
 Coeff-Com:  0.786D-03 0.467D-02 0.959D-02-0.168D-01-0.895D-01 0.189D+00
 Coeff-Com:  0.904D+00
 Coeff:      0.402D-05-0.130D-04-0.204D-03 0.106D-03-0.621D-03-0.830D-03
 Coeff:      0.786D-03 0.467D-02 0.959D-02-0.168D-01-0.895D-01 0.189D+00
 Coeff:      0.904D+00
 Gap=     0.222 Goal=   None    Shift=    0.000
 Gap=     0.220 Goal=   None    Shift=    0.000
 RMSDP=9.66D-08 MaxDP=3.58D-06 DE=-1.07D-09 OVMax= 7.98D-06

 Cycle  14  Pass 1  IDiag  1:
 E= -210.802913121707     Delta-E=       -0.000000000140 Rises=F Damp=F
 DIIS: error= 5.52D-07 at cycle  14 NSaved=  14.
 NSaved=14 IEnMin=14 EnMin= -210.802913121707     IErMin=14 ErrMin= 5.52D-07
 ErrMax= 5.52D-07  0.00D+00 EMaxC= 1.00D-01 BMatC= 6.26D-11 BMatP= 3.65D-10
 IDIUse=1 WtCom= 1.00D+00 WtEn= 0.00D+00
 Coeff-Com: -0.268D-06 0.323D-05 0.568D-04-0.203D-04 0.157D-03-0.211D-03
 Coeff-Com: -0.181D-03-0.772D-03 0.234D-02 0.846D-02-0.105D-01-0.152D+00
 Coeff-Com:  0.148D-01 0.114D+01
 Coeff:     -0.268D-06 0.323D-05 0.568D-04-0.203D-04 0.157D-03-0.211D-03
 Coeff:     -0.181D-03-0.772D-03 0.234D-02 0.846D-02-0.105D-01-0.152D+00
 Coeff:      0.148D-01 0.114D+01
 Gap=     0.222 Goal=   None    Shift=    0.000
 Gap=     0.220 Goal=   None    Shift=    0.000
 RMSDP=4.16D-08 MaxDP=1.40D-06 DE=-1.40D-10 OVMax= 4.94D-06

 Cycle  15  Pass 1  IDiag  1:
 E= -210.802913121734     Delta-E=       -0.000000000027 Rises=F Damp=F
 DIIS: error= 1.12D-07 at cycle  15 NSaved=  15.
 NSaved=15 IEnMin=15 EnMin= -210.802913121734     IErMin=15 ErrMin= 1.12D-07
 ErrMax= 1.12D-07  0.00D+00 EMaxC= 1.00D-01 BMatC= 2.71D-12 BMatP= 6.26D-11
 IDIUse=1 WtCom= 1.00D+00 WtEn= 0.00D+00
 Coeff-Com: -0.144D-06 0.413D-07 0.492D-05-0.168D-05 0.947D-05 0.784D-04
 Coeff-Com: -0.480D-04-0.151D-03-0.766D-03 0.322D-03 0.626D-02-0.149D-02
 Coeff-Com: -0.502D-01-0.669D-01 0.111D+01
 Coeff:     -0.144D-06 0.413D-07 0.492D-05-0.168D-05 0.947D-05 0.784D-04
 Coeff:     -0.480D-04-0.151D-03-0.766D-03 0.322D-03 0.626D-02-0.149D-02
 Coeff:     -0.502D-01-0.669D-01 0.111D+01
 Gap=     0.222 Goal=   None    Shift=    0.000
 Gap=     0.220 Goal=   None    Shift=    0.000
 RMSDP=7.29D-09 MaxDP=2.28D-07 DE=-2.74D-11 OVMax= 1.14D-06

 SCF Done:  E(UB3LYP) =  -210.802913122     A.U. after   15 cycles
            NFock= 15  Conv=0.73D-08     -V/T= 2.0044
 <Sx>= 0.0000 <Sy>= 0.0000 <Sz>= 0.5000 <S**2>= 0.7644 S= 0.5071
 <L.S>=  0.00000000000    
 KE= 2.098787569438D+02 PE=-7.888410825660D+02 EE= 2.183831787115D+02
 Annihilation of the first spin contaminant:
 S**2 before annihilation     0.7644,   after     0.7501
 Leave Link  502 at Wed Sep  5 16:43:37 2018, MaxMem=   805306368 cpu:              48.2 elap:               7.8
 (Enter /home/g16/l601.exe)
 Copying SCF densities to generalized density rwf, IOpCl= 1 IROHF=0.

 **********************************************************************

            Population analysis using the SCF density.

 **********************************************************************

 Orbital symmetries:
 Alpha Orbitals:
       Occupied  (A) (A) (A) (A) (A) (A) (A) (A) (A) (A) (A) (A)
                 (A) (A) (A) (A) (A) (A) (A)
       Virtual   (A) (A) (A) (A) (A) (A) (A) (A) (A) (A) (A) (A)
                 (A) (A) (A) (A) (A) (A) (A) (A) (A) (A) (A) (A)
                 (A) (A) (A) (A) (A) (A) (A) (A) (A) (A) (A) (A)
                 (A) (A) (A) (A) (A) (A) (A) (A) (A) (A) (A) (A)
                 (A) (A) (A) (A) (A) (A) (A) (A) (A) (A) (A) (A)
                 (A) (A) (A) (A) (A) (A) (A) (A) (A) (A) (A) (A)
                 (A) (A) (A) (A) (A) (A) (A) (A) (A) (A) (A) (A)
                 (A) (A) (A) (A) (A) (A) (A) (A) (A) (A) (A) (A)
                 (A) (A) (A) (A) (A) (A) (A) (A) (A) (A) (A) (A)
                 (A) (A) (A) (A) (A) (A) (A) (A) (A) (A) (A) (A)
                 (A) (A) (A) (A) (A) (A) (A) (A) (A) (A) (A) (A)
                 (A) (A) (A) (A) (A) (A) (A) (A) (A) (A) (A) (A)
                 (A) (A) (A) (A) (A) (A) (A) (A)
 Beta  Orbitals:
       Occupied  (A) (A) (A) (A) (A) (A) (A) (A) (A) (A) (A) (A)
                 (A) (A) (A) (A) (A) (A)
       Virtual   (A) (A) (A) (A) (A) (A) (A) (A) (A) (A) (A) (A)
                 (A) (A) (A) (A) (A) (A) (A) (A) (A) (A) (A) (A)
                 (A) (A) (A) (A) (A) (A) (A) (A) (A) (A) (A) (A)
                 (A) (A) (A) (A) (A) (A) (A) (A) (A) (A) (A) (A)
                 (A) (A) (A) (A) (A) (A) (A) (A) (A) (A) (A) (A)
                 (A) (A) (A) (A) (A) (A) (A) (A) (A) (A) (A) (A)
                 (A) (A) (A) (A) (A) (A) (A) (A) (A) (A) (A) (A)
                 (A) (A) (A) (A) (A) (A) (A) (A) (A) (A) (A) (A)
                 (A) (A) (A) (A) (A) (A) (A) (A) (A) (A) (A) (A)
                 (A) (A) (A) (A) (A) (A) (A) (A) (A) (A) (A) (A)
                 (A) (A) (A) (A) (A) (A) (A) (A) (A) (A) (A) (A)
                 (A) (A) (A) (A) (A) (A) (A) (A) (A) (A) (A) (A)
                 (A) (A) (A) (A) (A) (A) (A) (A) (A)
 The electronic state is 2-A.
 Alpha  occ. eigenvalues --  -14.31973 -10.23820 -10.20806 -10.19542 -10.19540
 Alpha  occ. eigenvalues --   -0.91901  -0.83880  -0.72903  -0.67004  -0.50992
 Alpha  occ. eigenvalues --   -0.47538  -0.46439  -0.42095  -0.41818  -0.39684
 Alpha  occ. eigenvalues --   -0.37465  -0.37353  -0.33669  -0.23010
 Alpha virt. eigenvalues --   -0.00804   0.00687   0.02577   0.02911   0.03556
 Alpha virt. eigenvalues --    0.04523   0.05737   0.06812   0.07189   0.07895
 Alpha virt. eigenvalues --    0.08208   0.08485   0.10061   0.12503   0.13245
 Alpha virt. eigenvalues --    0.13358   0.13590   0.16397   0.17860   0.18541
 Alpha virt. eigenvalues --    0.18734   0.19871   0.20689   0.21856   0.24171
 Alpha virt. eigenvalues --    0.25108   0.26185   0.26512   0.26896   0.31496
 Alpha virt. eigenvalues --    0.33510   0.38584   0.40828   0.41032   0.46394
 Alpha virt. eigenvalues --    0.47624   0.47880   0.49861   0.53513   0.54096
 Alpha virt. eigenvalues --    0.56551   0.56611   0.57932   0.58199   0.59102
 Alpha virt. eigenvalues --    0.61647   0.63648   0.64019   0.66512   0.69268
 Alpha virt. eigenvalues --    0.70445   0.71821   0.73281   0.73673   0.77614
 Alpha virt. eigenvalues --    0.80808   0.86489   0.87307   0.87496   0.89032
 Alpha virt. eigenvalues --    0.99281   0.99739   1.00901   1.00965   1.02480
 Alpha virt. eigenvalues --    1.07227   1.10040   1.11963   1.15969   1.23311
 Alpha virt. eigenvalues --    1.25929   1.27739   1.30149   1.31738   1.34426
 Alpha virt. eigenvalues --    1.37315   1.44049   1.44445   1.46628   1.55254
 Alpha virt. eigenvalues --    1.56556   1.67009   1.76609   1.78661   1.78853
 Alpha virt. eigenvalues --    1.80413   1.90578   1.93784   2.01355   2.02431
 Alpha virt. eigenvalues --    2.15565   2.15915   2.19163   2.23947   2.29528
 Alpha virt. eigenvalues --    2.31532   2.34071   2.34702   2.36553   2.37775
 Alpha virt. eigenvalues --    2.42109   2.58281   2.64333   2.66273   2.66308
 Alpha virt. eigenvalues --    2.79314   2.82074   2.83810   2.92583   2.96371
 Alpha virt. eigenvalues --    3.03837   3.04705   3.08439   3.15302   3.15645
 Alpha virt. eigenvalues --    3.16844   3.28118   3.29626   3.29719   3.33413
 Alpha virt. eigenvalues --    3.38171   3.40748   3.44609   3.49399   3.51428
 Alpha virt. eigenvalues --    3.55207   3.58835   3.65859   3.67014   3.69052
 Alpha virt. eigenvalues --    3.69591   3.89771   3.94744   4.04712   4.14544
 Alpha virt. eigenvalues --    4.15269   4.23511   4.23858   4.35291   4.36929
 Alpha virt. eigenvalues --    4.58363   4.74715   4.79170   4.80474   5.11057
 Alpha virt. eigenvalues --    5.17107   5.68536  23.73046  23.95068  24.05289
 Alpha virt. eigenvalues --   24.27364  35.84714
  Beta  occ. eigenvalues --  -14.31210 -10.22665 -10.21090 -10.19609 -10.19608
  Beta  occ. eigenvalues --   -0.90672  -0.82155  -0.72707  -0.65939  -0.50362
  Beta  occ. eigenvalues --   -0.45922  -0.45752  -0.41524  -0.41455  -0.39535
  Beta  occ. eigenvalues --   -0.36289  -0.34861  -0.33211
  Beta virt. eigenvalues --   -0.11212  -0.00752   0.00861   0.02641   0.03185
  Beta virt. eigenvalues --    0.03532   0.04598   0.05790   0.06809   0.07328
  Beta virt. eigenvalues --    0.07928   0.08419   0.10055   0.10978   0.12537
  Beta virt. eigenvalues --    0.13279   0.13755   0.13965   0.17050   0.17955
  Beta virt. eigenvalues --    0.18595   0.18832   0.20699   0.20746   0.22435
  Beta virt. eigenvalues --    0.24275   0.25929   0.26530   0.26651   0.26971
  Beta virt. eigenvalues --    0.31861   0.34035   0.38853   0.40986   0.41222
  Beta virt. eigenvalues --    0.46543   0.47686   0.49001   0.50130   0.54292
  Beta virt. eigenvalues --    0.55274   0.56712   0.56919   0.57943   0.59131
  Beta virt. eigenvalues --    0.59610   0.61897   0.63584   0.64436   0.66832
  Beta virt. eigenvalues --    0.70762   0.71274   0.72083   0.73385   0.73868
  Beta virt. eigenvalues --    0.78347   0.80980   0.87771   0.87850   0.88332
  Beta virt. eigenvalues --    0.89269   0.99923   1.00133   1.01804   1.02145
  Beta virt. eigenvalues --    1.03159   1.08451   1.10109   1.12120   1.16670
  Beta virt. eigenvalues --    1.24247   1.26117   1.28175   1.31682   1.31968
  Beta virt. eigenvalues --    1.35360   1.38940   1.44531   1.44881   1.47588
  Beta virt. eigenvalues --    1.55677   1.57807   1.67525   1.77130   1.79437
  Beta virt. eigenvalues --    1.80358   1.80563   1.91012   1.94075   2.01628
  Beta virt. eigenvalues --    2.02646   2.16067   2.16366   2.19687   2.23976
  Beta virt. eigenvalues --    2.29969   2.31946   2.34556   2.35482   2.36858
  Beta virt. eigenvalues --    2.38427   2.42550   2.58922   2.65381   2.66411
  Beta virt. eigenvalues --    2.66726   2.79726   2.81974   2.84305   2.92263
  Beta virt. eigenvalues --    3.00152   3.04053   3.04720   3.08620   3.16698
  Beta virt. eigenvalues --    3.16929   3.17586   3.28484   3.28672   3.30279
  Beta virt. eigenvalues --    3.33884   3.38527   3.40722   3.44513   3.51341
  Beta virt. eigenvalues --    3.53899   3.55489   3.58776   3.66711   3.66817
  Beta virt. eigenvalues --    3.70156   3.72592   3.90341   3.96976   4.07708
  Beta virt. eigenvalues --    4.14929   4.15391   4.23913   4.23943   4.36185
  Beta virt. eigenvalues --    4.37376   4.58981   4.75591   4.82509   4.83788
  Beta virt. eigenvalues --    5.13738   5.17697   5.69388  23.74099  23.95010
  Beta virt. eigenvalues --   24.05224  24.27340  35.85525
     Alpha Molecular Orbital Coefficients:
                           1         2         3         4         5
                           O         O         O         O         O
     Eigenvalues --   -14.31973 -10.23820 -10.20806 -10.19542 -10.19540
   1 1   C  1S          0.00002   0.56267  -0.00525  -0.00024  -0.00258
   2        2S         -0.00012   0.46325  -0.00403  -0.00021  -0.00219
   3        2PX         0.00035  -0.00014  -0.00080   0.00004   0.00038
   4        2PY        -0.00000   0.00000  -0.00000   0.00069  -0.00007
   5        2PZ        -0.00000   0.00000   0.00000   0.00000   0.00000
   6        3S          0.00116   0.02242  -0.00253   0.00016   0.00169
   7        3PX        -0.00346  -0.00275   0.00387  -0.00003  -0.00029
   8        3PY        -0.00000  -0.00000   0.00000  -0.00109   0.00010
   9        3PZ         0.00000   0.00000  -0.00000  -0.00000   0.00000
  10        4S          0.04032  -0.01601   0.01390  -0.00114  -0.01218
  11        4PX        -0.02695   0.00786  -0.00991   0.00135   0.01442
  12        4PY        -0.00001   0.00000  -0.00001   0.00469  -0.00044
  13        4PZ         0.00000  -0.00000   0.00000   0.00000   0.00000
  14        5S          0.00621   0.04543   0.06453   0.00059   0.00629
  15        5PX         0.00558  -0.01011  -0.01931   0.00066   0.00702
  16        5PY        -0.00000  -0.00001  -0.00001   0.02911  -0.00274
  17        5PZ        -0.00000   0.00000   0.00000   0.00000  -0.00000
  18        6D 0       -0.00004  -0.00032   0.00012  -0.00001  -0.00012
  19        6D+1        0.00000  -0.00000   0.00000   0.00000  -0.00000
  20        6D-1       -0.00000  -0.00000   0.00000   0.00000   0.00000
  21        6D+2        0.00021   0.00037  -0.00017  -0.00002  -0.00019
  22        6D-2       -0.00000   0.00000   0.00000   0.00048  -0.00004
  23        7D 0       -0.00065  -0.00015   0.00086   0.00013   0.00135
  24        7D+1       -0.00000  -0.00000  -0.00000  -0.00000   0.00000
  25        7D-1        0.00000   0.00000  -0.00000  -0.00000  -0.00000
  26        7D+2        0.00062   0.00050  -0.00334   0.00020   0.00207
  27        7D-2        0.00000   0.00000  -0.00000  -0.00604   0.00057
  28 2   C  1S         -0.00001   0.00181  -0.00040  -0.35908   0.43358
  29        2S          0.00005   0.00146  -0.00025  -0.29530   0.35666
  30        2PX         0.00004  -0.00025  -0.00010   0.00024  -0.00003
  31        2PY         0.00000   0.00047   0.00010   0.00003   0.00031
  32        2PZ         0.00000  -0.00000   0.00000   0.00000   0.00000
  33        3S         -0.00077   0.00069  -0.00067  -0.01394   0.01569
  34        3PX        -0.00007   0.00068   0.00053  -0.00076   0.00010
  35        3PY        -0.00023  -0.00120  -0.00074  -0.00126  -0.00095
  36        3PZ        -0.00000   0.00000  -0.00000  -0.00000  -0.00000
  37        4S          0.00354   0.00031   0.00214   0.00802  -0.00828
  38        4PX         0.00040   0.00021   0.00017  -0.00323  -0.00016
  39        4PY         0.00318  -0.00178   0.00131   0.00078  -0.00377
  40        4PZ         0.00000   0.00000  -0.00000  -0.00000  -0.00000
  41        5S         -0.00857  -0.00295   0.00111   0.03950  -0.01379
  42        5PX         0.00109   0.00101   0.00121  -0.00436   0.00067
  43        5PY        -0.00180  -0.00042   0.00072   0.00679  -0.00227
  44        5PZ         0.00000   0.00000   0.00000  -0.00000  -0.00000
  45        6D 0        0.00008   0.00002   0.00011   0.00014   0.00001
  46        6D+1        0.00000  -0.00000  -0.00000  -0.00000  -0.00000
  47        6D-1        0.00000  -0.00000   0.00000   0.00000  -0.00000
  48        6D+2        0.00001  -0.00004   0.00002   0.00003  -0.00003
  49        6D-2       -0.00003   0.00007   0.00008   0.00007   0.00009
  50        7D 0       -0.00104   0.00102  -0.00068  -0.00140   0.00063
  51        7D+1        0.00000   0.00000  -0.00000   0.00000   0.00000
  52        7D-1        0.00000   0.00000   0.00000   0.00000  -0.00000
  53        7D+2       -0.00068   0.00130  -0.00071   0.00077   0.00156
  54        7D-2        0.00050   0.00103   0.00124  -0.00028   0.00046
  55 3   H  1S         -0.00013  -0.00004  -0.00005  -0.00018   0.00018
  56        2S         -0.00086  -0.00082  -0.00158   0.00027  -0.00288
  57        3S          0.00208  -0.00015   0.00140  -0.00216   0.00170
  58        4PX        -0.00021  -0.00006  -0.00030   0.00079  -0.00090
  59        4PY        -0.00011  -0.00017  -0.00018   0.00047  -0.00138
  60        4PZ        -0.00000  -0.00000  -0.00000   0.00000  -0.00000
  61 4   H  1S          0.00009  -0.00010   0.00001  -0.00004   0.00018
  62        2S          0.00032  -0.00111   0.00024   0.00242  -0.00307
  63        3S          0.00021  -0.00039  -0.00049  -0.00258   0.00273
  64        4PX        -0.00014   0.00016  -0.00008  -0.00092   0.00092
  65        4PY         0.00000   0.00002  -0.00006   0.00002  -0.00003
  66        4PZ         0.00001  -0.00026  -0.00003   0.00094  -0.00141
  67 5   H  1S          0.00009  -0.00010   0.00001  -0.00004   0.00018
  68        2S          0.00032  -0.00111   0.00025   0.00242  -0.00307
  69        3S          0.00021  -0.00040  -0.00049  -0.00258   0.00273
  70        4PX        -0.00014   0.00016  -0.00008  -0.00092   0.00092
  71        4PY        -0.00000   0.00002  -0.00006   0.00002  -0.00004
  72        4PZ        -0.00001   0.00026   0.00003  -0.00094   0.00141
  73 6   C  1S         -0.00001   0.00181  -0.00040   0.43359   0.35907
  74        2S          0.00005   0.00146  -0.00025   0.35659   0.29538
  75        2PX         0.00004  -0.00025  -0.00010  -0.00024   0.00002
  76        2PY        -0.00000  -0.00047  -0.00010  -0.00002  -0.00031
  77        2PZ        -0.00000   0.00000  -0.00000   0.00000  -0.00000
  78        3S         -0.00077   0.00069  -0.00067   0.01662   0.01282
  79        3PX        -0.00007   0.00068   0.00053   0.00077  -0.00005
  80        3PY         0.00023   0.00120   0.00074  -0.00106   0.00117
  81        3PZ         0.00000  -0.00000   0.00000  -0.00000   0.00000
  82        4S          0.00355   0.00031   0.00215  -0.00942  -0.00665
  83        4PX         0.00040   0.00021   0.00017   0.00315  -0.00076
  84        4PY        -0.00318   0.00179  -0.00132   0.00147   0.00356
  85        4PZ        -0.00000  -0.00000   0.00000  -0.00000  -0.00000
  86        5S         -0.00857  -0.00294   0.00112  -0.04140  -0.00619
  87        5PX         0.00109   0.00100   0.00121   0.00441  -0.00016
  88        5PY         0.00180   0.00041  -0.00073   0.00709   0.00097
  89        5PZ        -0.00000  -0.00000  -0.00000   0.00000   0.00000
  90        6D 0        0.00008   0.00002   0.00011  -0.00014   0.00003
  91        6D+1       -0.00000   0.00000   0.00000  -0.00000   0.00000
  92        6D-1       -0.00000  -0.00000  -0.00000   0.00000  -0.00000
  93        6D+2        0.00001  -0.00004   0.00002  -0.00003  -0.00002
  94        6D-2        0.00003  -0.00007  -0.00008   0.00006  -0.00010
  95        7D 0       -0.00104   0.00102  -0.00068   0.00149   0.00036
  96        7D+1       -0.00000  -0.00000  -0.00000   0.00000  -0.00000
  97        7D-1        0.00000  -0.00000   0.00000  -0.00000   0.00000
  98        7D+2       -0.00068   0.00130  -0.00071  -0.00047   0.00167
  99        7D-2       -0.00050  -0.00103  -0.00124  -0.00037  -0.00040
 100 7   H  1S          0.00009  -0.00010   0.00001   0.00007   0.00017
 101        2S          0.00032  -0.00111   0.00024  -0.00295  -0.00257
 102        3S          0.00021  -0.00040  -0.00049   0.00305   0.00221
 103        4PX        -0.00014   0.00016  -0.00008   0.00108   0.00073
 104        4PY        -0.00000  -0.00002   0.00006   0.00002   0.00003
 105        4PZ        -0.00001   0.00026   0.00003   0.00119   0.00121
 106 8   H  1S          0.00009  -0.00010   0.00001   0.00007   0.00017
 107        2S          0.00032  -0.00111   0.00024  -0.00295  -0.00257
 108        3S          0.00021  -0.00039  -0.00049   0.00305   0.00220
 109        4PX        -0.00014   0.00016  -0.00008   0.00108   0.00073
 110        4PY        -0.00000  -0.00002   0.00006   0.00002   0.00003
 111        4PZ         0.00001  -0.00026  -0.00003  -0.00119  -0.00121
 112 9   H  1S         -0.00013  -0.00004  -0.00005   0.00020   0.00014
 113        2S         -0.00086  -0.00082  -0.00158  -0.00080  -0.00278
 114        3S          0.00208  -0.00015   0.00140   0.00244   0.00127
 115        4PX        -0.00021  -0.00006  -0.00030  -0.00094  -0.00074
 116        4PY         0.00012   0.00017   0.00018   0.00071   0.00127
 117        4PZ         0.00000   0.00000   0.00000   0.00000   0.00000
 118 10  C  1S          0.00000   0.00513   0.56270   0.00005   0.00051
 119        2S          0.00023   0.00443   0.46289   0.00005   0.00054
 120        2PX        -0.00029   0.00062   0.00067   0.00000   0.00002
 121        2PY         0.00000  -0.00000  -0.00000   0.00021  -0.00002
 122        2PZ         0.00000  -0.00000  -0.00000   0.00000  -0.00000
 123        3S          0.00362   0.00221   0.02533  -0.00014  -0.00149
 124        3PX         0.00155  -0.00303  -0.00715  -0.00009  -0.00092
 125        3PY        -0.00000   0.00000   0.00000  -0.00119   0.00011
 126        3PZ        -0.00000   0.00000   0.00000  -0.00000   0.00000
 127        4S         -0.02384  -0.00928   0.02512   0.00133   0.01413
 128        4PX        -0.04430   0.01515  -0.03513   0.00136   0.01453
 129        4PY         0.00000  -0.00000   0.00000  -0.00158   0.00015
 130        4PZ         0.00000  -0.00000   0.00000  -0.00000  -0.00000
 131        5S          0.01416  -0.04246  -0.05993   0.00080   0.00839
 132        5PX         0.00144  -0.01050  -0.02444   0.00020   0.00211
 133        5PY         0.00000  -0.00000  -0.00000  -0.00597   0.00056
 134        5PZ         0.00000  -0.00000   0.00000  -0.00000  -0.00000
 135        6D 0        0.00024  -0.00006  -0.00120   0.00001   0.00015
 136        6D+1        0.00000   0.00000  -0.00000  -0.00000   0.00000
 137        6D-1        0.00000  -0.00000   0.00000  -0.00000  -0.00000
 138        6D+2       -0.00049   0.00011   0.00189  -0.00001  -0.00007
 139        6D-2        0.00000  -0.00000  -0.00000  -0.00006   0.00001
 140        7D 0        0.00353   0.00324  -0.00327  -0.00011  -0.00113
 141        7D+1        0.00000   0.00000  -0.00000   0.00000  -0.00000
 142        7D-1       -0.00000   0.00000  -0.00000   0.00000   0.00000
 143        7D+2       -0.00571  -0.00567   0.00621   0.00006   0.00063
 144        7D-2        0.00000  -0.00000  -0.00000  -0.00279   0.00026
 145 11  N  1S          0.55718  -0.00000  -0.00029   0.00000   0.00000
 146        2S          0.46565  -0.00010  -0.00005   0.00001   0.00006
 147        2PX         0.00123   0.00001   0.00110   0.00000   0.00003
 148        2PY        -0.00000   0.00000  -0.00000   0.00007  -0.00001
 149        2PZ        -0.00000  -0.00000  -0.00000  -0.00000   0.00000
 150        3S          0.02023   0.00189   0.00073  -0.00008  -0.00082
 151        3PX         0.00289   0.00052  -0.00567  -0.00003  -0.00031
 152        3PY        -0.00000  -0.00000   0.00000  -0.00038   0.00004
 153        3PZ        -0.00000   0.00000   0.00000   0.00000  -0.00000
 154        4S         -0.03074   0.01260  -0.04879   0.00045   0.00484
 155        4PX        -0.00896   0.00253  -0.02147   0.00005   0.00055
 156        4PY         0.00000  -0.00000   0.00000  -0.00125   0.00012
 157        4PZ        -0.00000  -0.00000   0.00000  -0.00000   0.00000
 158        5S         -0.01030   0.01026  -0.01473   0.00029   0.00317
 159        5PX        -0.00256   0.00498   0.00190   0.00009   0.00097
 160        5PY         0.00000   0.00000   0.00000   0.00157  -0.00015
 161        5PZ        -0.00000   0.00000  -0.00000   0.00000   0.00000
 162        6D 0       -0.00012  -0.00005   0.00015  -0.00001  -0.00006
 163        6D+1        0.00000  -0.00000   0.00000  -0.00000  -0.00000
 164        6D-1       -0.00000   0.00000  -0.00000   0.00000   0.00000
 165        6D+2        0.00058   0.00010  -0.00023   0.00000   0.00002
 166        6D-2       -0.00000   0.00000   0.00000   0.00007  -0.00001
 167        7D 0        0.00019   0.00059   0.00239   0.00003   0.00034
 168        7D+1       -0.00000   0.00000   0.00000   0.00000  -0.00000
 169        7D-1        0.00000  -0.00000   0.00000  -0.00000  -0.00000
 170        7D+2       -0.00051  -0.00106  -0.00432  -0.00002  -0.00016
 171        7D-2        0.00000  -0.00000   0.00000  -0.00070   0.00006
                           6         7         8         9        10
                           O         O         O         O         O
     Eigenvalues --    -0.91901  -0.83880  -0.72903  -0.67004  -0.50992
   1 1   C  1S         -0.02817  -0.08570   0.00000  -0.04826  -0.04168
   2        2S         -0.04351  -0.13382   0.00000  -0.07627  -0.06652
   3        2PX        -0.01696   0.00231  -0.00000  -0.11365   0.13569
   4        2PY        -0.00000  -0.00000   0.08133  -0.00001   0.00002
   5        2PZ         0.00000   0.00001  -0.00000   0.00000  -0.00001
   6        3S          0.11204   0.35433  -0.00000   0.21262   0.18820
   7        3PX        -0.01880   0.00588  -0.00000  -0.16476   0.20002
   8        3PY         0.00000  -0.00000   0.12227  -0.00001   0.00003
   9        3PZ         0.00000   0.00001  -0.00000   0.00000  -0.00001
  10        4S          0.05495   0.20081  -0.00001   0.09579   0.15519
  11        4PX        -0.01205   0.00478   0.00000  -0.04379   0.08316
  12        4PY         0.00000  -0.00001   0.05770  -0.00000   0.00001
  13        4PZ         0.00000   0.00001   0.00001   0.00000  -0.00001
  14        5S         -0.01428  -0.28464   0.00001  -0.21123   0.13185
  15        5PX         0.00149   0.03583  -0.00002   0.14302  -0.08699
  16        5PY         0.00000   0.00001  -0.14072   0.00005  -0.00004
  17        5PZ        -0.00000  -0.00000  -0.00001  -0.00000  -0.00000
  18        6D 0       -0.00134  -0.00500   0.00000  -0.00236   0.00051
  19        6D+1       -0.00000   0.00000  -0.00000  -0.00000   0.00000
  20        6D-1        0.00000   0.00000   0.00000   0.00000   0.00000
  21        6D+2        0.00133   0.00053  -0.00000   0.01070  -0.00635
  22        6D-2        0.00000   0.00000   0.00705   0.00000  -0.00000
  23        7D 0       -0.00162  -0.00418   0.00000   0.00359   0.00289
  24        7D+1        0.00000   0.00000   0.00000   0.00000  -0.00000
  25        7D-1       -0.00000  -0.00000   0.00000  -0.00000  -0.00000
  26        7D+2       -0.00159  -0.00144  -0.00000   0.00835   0.00722
  27        7D-2       -0.00000   0.00000   0.00765   0.00000  -0.00000
  28 2   C  1S         -0.01042  -0.05394   0.07779   0.04888   0.01500
  29        2S         -0.01595  -0.08319   0.12070   0.07598   0.02329
  30        2PX        -0.00528  -0.01270   0.00347  -0.03392   0.00655
  31        2PY         0.00617   0.02514   0.00573   0.01692   0.12474
  32        2PZ         0.00000   0.00000  -0.00000  -0.00000  -0.00002
  33        3S          0.04054   0.21517  -0.31851  -0.20078  -0.05890
  34        3PX        -0.00726  -0.02180   0.00839  -0.04758   0.00719
  35        3PY         0.00875   0.04194   0.00125   0.02242   0.17831
  36        3PZ        -0.00000   0.00000  -0.00001  -0.00001  -0.00003
  37        4S          0.01668   0.10342  -0.17885  -0.13280  -0.06539
  38        4PX        -0.00228  -0.00650  -0.00392  -0.02864   0.00445
  39        4PY         0.00375   0.00791   0.01057   0.00854   0.10314
  40        4PZ        -0.00001  -0.00001  -0.00001  -0.00002  -0.00001
  41        5S          0.00209   0.06491  -0.21634  -0.07615   0.01473
  42        5PX         0.00072  -0.01082   0.02568  -0.00448   0.01054
  43        5PY         0.00051   0.00995  -0.03828  -0.01974   0.01034
  44        5PZ         0.00000  -0.00001   0.00000  -0.00001  -0.00000
  45        6D 0       -0.00057  -0.00237   0.00062  -0.00212  -0.00166
  46        6D+1        0.00000  -0.00000  -0.00000   0.00000  -0.00001
  47        6D-1        0.00000  -0.00000  -0.00000   0.00000  -0.00001
  48        6D+2       -0.00028  -0.00200  -0.00042   0.00021  -0.00534
  49        6D-2       -0.00093  -0.00333   0.00078  -0.00298  -0.00758
  50        7D 0       -0.00222  -0.00461   0.00023  -0.00298  -0.00277
  51        7D+1       -0.00000  -0.00000  -0.00000   0.00000  -0.00000
  52        7D-1        0.00000   0.00000  -0.00000   0.00000  -0.00001
  53        7D+2       -0.00165  -0.00377  -0.00130   0.00362  -0.00866
  54        7D-2        0.00001  -0.00508   0.00221  -0.00584  -0.00634
  55 3   H  1S          0.00607   0.03083  -0.06420  -0.03671  -0.09406
  56        2S          0.00506   0.03707  -0.07977  -0.04514  -0.12523
  57        3S          0.00176  -0.00982   0.00480  -0.00621  -0.02713
  58        4PX         0.00021   0.00349  -0.00789  -0.00558  -0.00927
  59        4PY         0.00112   0.00617  -0.01044  -0.00486  -0.00733
  60        4PZ         0.00000   0.00001  -0.00002  -0.00001  -0.00002
  61 4   H  1S          0.00495   0.03259  -0.05959  -0.05494  -0.01927
  62        2S          0.00718   0.04032  -0.07428  -0.06776  -0.02508
  63        3S          0.00004  -0.00419   0.00808   0.00011  -0.00515
  64        4PX        -0.00107  -0.00469   0.00727   0.00435   0.00234
  65        4PY         0.00022   0.00141  -0.00032  -0.00009   0.00689
  66        4PZ         0.00094   0.00570  -0.00968  -0.00850  -0.00227
  67 5   H  1S          0.00495   0.03259  -0.05961  -0.05491  -0.01942
  68        2S          0.00719   0.04033  -0.07429  -0.06772  -0.02530
  69        3S          0.00004  -0.00417   0.00808   0.00014  -0.00520
  70        4PX        -0.00106  -0.00467   0.00724   0.00432   0.00235
  71        4PY         0.00022   0.00142  -0.00033  -0.00010   0.00688
  72        4PZ        -0.00094  -0.00571   0.00969   0.00851   0.00230
  73 6   C  1S         -0.01042  -0.05393  -0.07780   0.04887   0.01500
  74        2S         -0.01595  -0.08319  -0.12071   0.07597   0.02329
  75        2PX        -0.00528  -0.01269  -0.00347  -0.03392   0.00656
  76        2PY        -0.00617  -0.02514   0.00573  -0.01693  -0.12475
  77        2PZ        -0.00000  -0.00000  -0.00000   0.00000  -0.00002
  78        3S          0.04054   0.21516   0.31853  -0.20075  -0.05891
  79        3PX        -0.00726  -0.02179  -0.00839  -0.04757   0.00719
  80        3PY        -0.00876  -0.04194   0.00125  -0.02242  -0.17832
  81        3PZ         0.00000  -0.00000  -0.00000   0.00000  -0.00002
  82        4S          0.01668   0.10343   0.17886  -0.13278  -0.06539
  83        4PX        -0.00228  -0.00650   0.00392  -0.02863   0.00445
  84        4PY        -0.00375  -0.00791   0.01058  -0.00854  -0.10315
  85        4PZ         0.00000   0.00000  -0.00001   0.00000  -0.00002
  86        5S          0.00207   0.06488   0.21639  -0.07623   0.01479
  87        5PX         0.00073  -0.01081  -0.02568  -0.00447   0.01053
  88        5PY        -0.00051  -0.00995  -0.03829   0.01975  -0.01035
  89        5PZ        -0.00000   0.00000  -0.00000   0.00001   0.00000
  90        6D 0       -0.00057  -0.00237  -0.00062  -0.00212  -0.00166
  91        6D+1        0.00000   0.00000  -0.00000  -0.00000   0.00000
  92        6D-1        0.00000   0.00000   0.00000   0.00000  -0.00000
  93        6D+2       -0.00028  -0.00200   0.00042   0.00020  -0.00534
  94        6D-2        0.00093   0.00333   0.00078   0.00298   0.00758
  95        7D 0       -0.00222  -0.00461  -0.00023  -0.00298  -0.00277
  96        7D+1        0.00000   0.00000  -0.00000  -0.00000  -0.00000
  97        7D-1        0.00000   0.00000   0.00000   0.00000   0.00000
  98        7D+2       -0.00165  -0.00377   0.00130   0.00362  -0.00866
  99        7D-2       -0.00001   0.00508   0.00221   0.00584   0.00634
 100 7   H  1S          0.00495   0.03259   0.05960  -0.05492  -0.01934
 101        2S          0.00718   0.04032   0.07429  -0.06774  -0.02517
 102        3S          0.00004  -0.00418  -0.00808   0.00013  -0.00518
 103        4PX        -0.00106  -0.00468  -0.00726   0.00434   0.00235
 104        4PY        -0.00022  -0.00141  -0.00032   0.00009  -0.00689
 105        4PZ        -0.00094  -0.00570  -0.00968   0.00850   0.00228
 106 8   H  1S          0.00495   0.03259   0.05961  -0.05491  -0.01937
 107        2S          0.00719   0.04032   0.07429  -0.06773  -0.02523
 108        3S          0.00004  -0.00418  -0.00809   0.00013  -0.00518
 109        4PX        -0.00106  -0.00468  -0.00725   0.00433   0.00235
 110        4PY        -0.00022  -0.00142  -0.00033   0.00010  -0.00688
 111        4PZ         0.00094   0.00570   0.00969  -0.00851  -0.00229
 112 9   H  1S          0.00607   0.03083   0.06420  -0.03670  -0.09406
 113        2S          0.00506   0.03706   0.07977  -0.04514  -0.12523
 114        3S          0.00176  -0.00982  -0.00481  -0.00620  -0.02713
 115        4PX         0.00021   0.00349   0.00789  -0.00558  -0.00927
 116        4PY        -0.00112  -0.00617  -0.01044   0.00486   0.00732
 117        4PZ        -0.00000  -0.00000  -0.00001   0.00000   0.00001
 118 10  C  1S         -0.08582  -0.00745   0.00000  -0.04772   0.03105
 119        2S         -0.13125  -0.01195   0.00000  -0.07526   0.04954
 120        2PX        -0.08806   0.09184  -0.00001   0.12167  -0.05624
 121        2PY         0.00001  -0.00000   0.01480   0.00001   0.00000
 122        2PZ         0.00000  -0.00000   0.00000  -0.00001   0.00000
 123        3S          0.33564   0.03030  -0.00001   0.20349  -0.14030
 124        3PX        -0.08829   0.11661  -0.00001   0.16075  -0.07417
 125        3PY         0.00002  -0.00000   0.02059   0.00001   0.00000
 126        3PZ         0.00000  -0.00000   0.00000  -0.00001   0.00000
 127        4S          0.10027   0.03045  -0.00002   0.12953  -0.09692
 128        4PX        -0.00466   0.01206   0.00002   0.06633  -0.05766
 129        4PY        -0.00000   0.00000   0.00491   0.00000   0.00000
 130        4PZ         0.00000  -0.00000   0.00000  -0.00000   0.00000
 131        5S          0.03097   0.16098  -0.00007   0.34082  -0.16849
 132        5PX        -0.00900   0.05224  -0.00002   0.09415  -0.04715
 133        5PY         0.00000   0.00001   0.02304   0.00001   0.00001
 134        5PZ         0.00000  -0.00000   0.00001  -0.00000   0.00001
 135        6D 0       -0.01098  -0.00032   0.00000  -0.00393   0.00200
 136        6D+1       -0.00000  -0.00000   0.00000  -0.00000   0.00000
 137        6D-1        0.00000   0.00000  -0.00000  -0.00000  -0.00000
 138        6D+2        0.01808   0.00024  -0.00000   0.00662  -0.00274
 139        6D-2       -0.00000   0.00000   0.00220   0.00000  -0.00000
 140        7D 0       -0.00721  -0.00346   0.00000  -0.00261  -0.00068
 141        7D+1       -0.00000   0.00000   0.00000  -0.00000  -0.00000
 142        7D-1        0.00000   0.00000  -0.00000   0.00000  -0.00000
 143        7D+2        0.01149   0.00647  -0.00000   0.00646   0.00539
 144        7D-2       -0.00000   0.00000   0.00654   0.00000   0.00000
 145 11  N  1S         -0.09572   0.03669  -0.00000   0.02767  -0.01703
 146        2S         -0.15041   0.05811  -0.00000   0.04438  -0.02743
 147        2PX         0.09513  -0.03285   0.00000  -0.01378  -0.00834
 148        2PY        -0.00001   0.00001   0.00353   0.00001  -0.00000
 149        2PZ        -0.00000   0.00000   0.00000  -0.00000   0.00000
 150        3S          0.41403  -0.16425   0.00000  -0.12942   0.08006
 151        3PX         0.12401  -0.04209   0.00000  -0.01647  -0.01209
 152        3PY        -0.00001   0.00001   0.00580   0.00001  -0.00000
 153        3PZ        -0.00000   0.00000   0.00000  -0.00000  -0.00000
 154        4S          0.24587  -0.10418   0.00002  -0.07309   0.05251
 155        4PX         0.04088  -0.01016   0.00001   0.00643  -0.01826
 156        4PY        -0.00000   0.00000   0.00679   0.00000   0.00000
 157        4PZ        -0.00000   0.00000   0.00000  -0.00000  -0.00000
 158        5S         -0.03698   0.00266   0.00001  -0.00589  -0.01057
 159        5PX        -0.00665  -0.00951   0.00001  -0.01568   0.00122
 160        5PY        -0.00000  -0.00000  -0.00459  -0.00000  -0.00000
 161        5PZ        -0.00000  -0.00000  -0.00000   0.00000  -0.00000
 162        6D 0       -0.00481   0.00205  -0.00000   0.00139  -0.00002
 163        6D+1       -0.00000   0.00000   0.00000   0.00000   0.00000
 164        6D-1       -0.00000   0.00000  -0.00000   0.00000  -0.00000
 165        6D+2        0.01085  -0.00455   0.00000  -0.00312   0.00061
 166        6D-2       -0.00000   0.00000   0.00044   0.00000  -0.00000
 167        7D 0       -0.00243  -0.00068   0.00000  -0.00172   0.00106
 168        7D+1       -0.00000   0.00000   0.00000  -0.00000  -0.00000
 169        7D-1       -0.00000   0.00000  -0.00000   0.00000   0.00000
 170        7D+2        0.00747  -0.00029   0.00000   0.00133  -0.00109
 171        7D-2       -0.00000   0.00000   0.00253   0.00000   0.00000
                          11        12        13        14        15
                           O         O         O         O         O
     Eigenvalues --    -0.47538  -0.46439  -0.42095  -0.41818  -0.39684
   1 1   C  1S         -0.00000  -0.00000   0.00001   0.01636  -0.00000
   2        2S         -0.00000  -0.00000   0.00001   0.02629  -0.00000
   3        2PX         0.00002  -0.00002  -0.00003  -0.07406   0.00001
   4        2PY         0.00003   0.14380   0.00000  -0.00000  -0.11138
   5        2PZ         0.11370  -0.00002  -0.00000   0.00002   0.00002
   6        3S          0.00001   0.00000  -0.00004  -0.07387   0.00000
   7        3PX         0.00003  -0.00003  -0.00004  -0.10765   0.00002
   8        3PY         0.00004   0.21498   0.00000  -0.00001  -0.16697
   9        3PZ         0.17847  -0.00003  -0.00000   0.00003   0.00003
  10        4S          0.00004  -0.00000  -0.00005  -0.06135   0.00000
  11        4PX        -0.00002  -0.00002  -0.00006  -0.09920   0.00002
  12        4PY        -0.00001   0.08733   0.00005  -0.00002  -0.11996
  13        4PZ         0.10244  -0.00002  -0.00000   0.00002   0.00002
  14        5S          0.00040  -0.00004  -0.00024  -0.11898   0.00007
  15        5PX        -0.00017  -0.00000  -0.00003   0.11418  -0.00002
  16        5PY         0.00018  -0.11389   0.00006   0.00005   0.00141
  17        5PZ        -0.01971  -0.00001  -0.00000  -0.00001  -0.00003
  18        6D 0        0.00000  -0.00000  -0.00000  -0.00034   0.00000
  19        6D+1        0.00089  -0.00000  -0.00000  -0.00000  -0.00000
  20        6D-1       -0.00000   0.00000   0.00825  -0.00000  -0.00000
  21        6D+2       -0.00000   0.00000   0.00001   0.01453   0.00000
  22        6D-2       -0.00000   0.00144  -0.00000   0.00000  -0.00918
  23        7D 0        0.00000   0.00000  -0.00001   0.00477   0.00000
  24        7D+1        0.01036  -0.00001  -0.00000  -0.00001  -0.00003
  25        7D-1        0.00000  -0.00000   0.02313  -0.00002  -0.00001
  26        7D+2       -0.00000   0.00000   0.00002   0.03782   0.00000
  27        7D-2       -0.00000  -0.02451  -0.00000   0.00001  -0.02356
  28 2   C  1S          0.00000  -0.00469  -0.00000   0.00520  -0.00559
  29        2S          0.00001  -0.00715  -0.00001   0.00833  -0.00901
  30        2PX         0.00000   0.12583   0.00007   0.13427   0.05828
  31        2PY         0.00001  -0.04211   0.00000   0.01670   0.13994
  32        2PZ         0.12594  -0.00001  -0.14979   0.00007  -0.00000
  33        3S         -0.00002   0.01467   0.00001  -0.02443   0.02759
  34        3PX         0.00001   0.17862   0.00010   0.18024   0.07770
  35        3PY         0.00001  -0.06724   0.00000   0.01903   0.19369
  36        3PZ         0.17565  -0.00001  -0.20740   0.00009  -0.00000
  37        4S         -0.00000   0.00642   0.00008   0.00412  -0.01122
  38        4PX         0.00005   0.11830   0.00007   0.12287   0.06907
  39        4PY         0.00003  -0.04713   0.00003   0.02943   0.13149
  40        4PZ         0.10868   0.00000  -0.13734   0.00007   0.00002
  41        5S          0.00043  -0.09169   0.00013  -0.08185   0.00951
  42        5PX        -0.00002   0.01896  -0.00001   0.01645   0.01316
  43        5PY         0.00012  -0.01022   0.00002  -0.01490   0.01939
  44        5PZ         0.01290   0.00001  -0.01230   0.00002   0.00001
  45        6D 0        0.00003   0.00782  -0.00003   0.00793   0.00322
  46        6D+1        0.00639  -0.00002  -0.01027  -0.00002  -0.00003
  47        6D-1        0.00246  -0.00001   0.00071  -0.00002  -0.00002
  48        6D+2       -0.00001   0.00337   0.00001   0.00596   0.00215
  49        6D-2       -0.00001   0.00354   0.00002  -0.00256  -0.01134
  50        7D 0        0.00002   0.00664  -0.00001  -0.00007   0.00140
  51        7D+1       -0.00145  -0.00001  -0.00587  -0.00000  -0.00001
  52        7D-1        0.00924  -0.00000   0.00280  -0.00000  -0.00000
  53        7D+2       -0.00000   0.00294   0.00001   0.00882   0.00478
  54        7D-2       -0.00000   0.00646   0.00000  -0.00065  -0.00723
  55 3   H  1S         -0.00015  -0.03105   0.00015  -0.09004  -0.12912
  56        2S         -0.00021  -0.04425   0.00022  -0.13531  -0.18688
  57        3S         -0.00003  -0.01729   0.00008  -0.04186  -0.07298
  58        4PX        -0.00002   0.00407   0.00002  -0.00240  -0.01010
  59        4PY        -0.00002  -0.00812   0.00002  -0.01337  -0.00962
  60        4PZ         0.00772  -0.00001  -0.00928  -0.00002  -0.00003
  61 4   H  1S         -0.08437   0.06967   0.10774   0.06749   0.03082
  62        2S         -0.12105   0.09736   0.15784   0.09958   0.04654
  63        3S         -0.03862   0.02800   0.06359   0.04073   0.01668
  64        4PX         0.00945  -0.00017  -0.01166   0.00069   0.00003
  65        4PY        -0.00146  -0.00159   0.00077   0.00257   0.00818
  66        4PZ        -0.00527   0.00969   0.00634   0.00939   0.00471
  67 5   H  1S          0.08452   0.06947  -0.10788   0.06729   0.03054
  68        2S          0.12125   0.09709  -0.15807   0.09928   0.04611
  69        3S          0.03860   0.02790  -0.06365   0.04060   0.01648
  70        4PX        -0.00942  -0.00012   0.01164   0.00074   0.00008
  71        4PY         0.00148  -0.00158  -0.00080   0.00258   0.00819
  72        4PZ        -0.00532  -0.00968   0.00640  -0.00937  -0.00468
  73 6   C  1S          0.00000   0.00469   0.00000   0.00520   0.00559
  74        2S          0.00000   0.00715   0.00000   0.00833   0.00901
  75        2PX        -0.00003  -0.12583   0.00003   0.13426  -0.05831
  76        2PY        -0.00003  -0.04211  -0.00001  -0.01667   0.13994
  77        2PZ         0.12594  -0.00004   0.14979  -0.00005  -0.00001
  78        3S          0.00000  -0.01466  -0.00001  -0.02444  -0.02758
  79        3PX        -0.00004  -0.17863   0.00004   0.18022  -0.07774
  80        3PY        -0.00004  -0.06724  -0.00001  -0.01899   0.19368
  81        3PZ         0.17565  -0.00005   0.20740  -0.00006  -0.00001
  82        4S         -0.00001  -0.00641   0.00000   0.00413   0.01122
  83        4PX        -0.00005  -0.11830   0.00005   0.12286  -0.06909
  84        4PY        -0.00001  -0.04714  -0.00002  -0.02941   0.13149
  85        4PZ         0.10868  -0.00003   0.13734  -0.00004   0.00000
  86        5S         -0.00033   0.09175   0.00003  -0.08195  -0.00950
  87        5PX         0.00004  -0.01897   0.00000   0.01646  -0.01316
  88        5PY         0.00008  -0.01023  -0.00001   0.01492   0.01938
  89        5PZ         0.01290  -0.00000   0.01230  -0.00000   0.00001
  90        6D 0       -0.00001  -0.00782  -0.00001   0.00793  -0.00322
  91        6D+1        0.00639  -0.00001   0.01027   0.00001  -0.00001
  92        6D-1       -0.00246   0.00001   0.00072  -0.00001   0.00001
  93        6D+2        0.00000  -0.00337   0.00001   0.00596  -0.00215
  94        6D-2       -0.00000   0.00354  -0.00001   0.00256  -0.01134
  95        7D 0       -0.00001  -0.00664  -0.00000  -0.00007  -0.00140
  96        7D+1       -0.00145  -0.00000   0.00587  -0.00000  -0.00001
  97        7D-1       -0.00924   0.00000   0.00280  -0.00001  -0.00000
  98        7D+2       -0.00000  -0.00294   0.00000   0.00882  -0.00478
  99        7D-2        0.00000   0.00646  -0.00001   0.00066  -0.00723
 100 7   H  1S          0.08440  -0.06963   0.10779   0.06740  -0.03075
 101        2S          0.12109  -0.09731   0.15792   0.09944  -0.04643
 102        3S          0.03862  -0.02798   0.06361   0.04067  -0.01664
 103        4PX        -0.00944   0.00016  -0.01166   0.00071  -0.00005
 104        4PY        -0.00147  -0.00159  -0.00078  -0.00257   0.00819
 105        4PZ        -0.00528   0.00969  -0.00636  -0.00938   0.00470
 106 8   H  1S         -0.08449  -0.06952  -0.10783   0.06737  -0.03062
 107        2S         -0.12120  -0.09715  -0.15799   0.09940  -0.04623
 108        3S         -0.03860  -0.02793  -0.06363   0.04066  -0.01653
 109        4PX         0.00943   0.00014   0.01165   0.00072  -0.00006
 110        4PY         0.00147  -0.00158   0.00079  -0.00258   0.00819
 111        4PZ        -0.00530  -0.00968  -0.00638   0.00938  -0.00468
 112 9   H  1S          0.00005   0.03107   0.00005  -0.09003   0.12912
 113        2S          0.00007   0.04428   0.00008  -0.13529   0.18688
 114        3S          0.00001   0.01730   0.00003  -0.04185   0.07298
 115        4PX         0.00001  -0.00407   0.00001  -0.00240   0.01010
 116        4PY        -0.00001  -0.00812  -0.00001   0.01337  -0.00962
 117        4PZ         0.00772  -0.00001   0.00928   0.00001  -0.00001
 118 10  C  1S          0.00001   0.00000  -0.00002  -0.04236   0.00000
 119        2S          0.00001   0.00000  -0.00003  -0.06801   0.00000
 120        2PX        -0.00001   0.00000   0.00001   0.03252   0.00000
 121        2PY         0.00002   0.07614   0.00000   0.00001  -0.03860
 122        2PZ         0.05287  -0.00000  -0.00000   0.00001   0.00004
 123        3S         -0.00002  -0.00001   0.00007   0.19406  -0.00001
 124        3PX        -0.00001   0.00000   0.00000   0.04025   0.00000
 125        3PY         0.00003   0.10705   0.00000   0.00001  -0.05948
 126        3PZ         0.07841  -0.00001  -0.00000   0.00002   0.00006
 127        4S         -0.00006  -0.00004   0.00008   0.12349   0.00002
 128        4PX        -0.00004   0.00001  -0.00001  -0.01493  -0.00001
 129        4PY         0.00002   0.05780  -0.00002   0.00000  -0.02094
 130        4PZ         0.03763   0.00000  -0.00000   0.00002   0.00004
 131        5S         -0.00048  -0.00001   0.00008   0.30451  -0.00007
 132        5PX        -0.00014  -0.00000   0.00003   0.08226  -0.00002
 133        5PY         0.00000   0.04406  -0.00002   0.00000  -0.01768
 134        5PZ         0.01411   0.00001   0.00000   0.00000   0.00003
 135        6D 0        0.00000  -0.00000  -0.00000  -0.00250   0.00000
 136        6D+1        0.00216  -0.00000  -0.00000  -0.00000  -0.00000
 137        6D-1        0.00000  -0.00000   0.00079  -0.00000  -0.00000
 138        6D+2       -0.00000  -0.00000   0.00000   0.00541   0.00000
 139        6D-2        0.00000   0.00245   0.00000   0.00000  -0.00129
 140        7D 0        0.00000   0.00000  -0.00000   0.00362  -0.00000
 141        7D+1        0.02103  -0.00001   0.00000  -0.00000  -0.00001
 142        7D-1        0.00000  -0.00000  -0.00145  -0.00000  -0.00000
 143        7D+2       -0.00000  -0.00001   0.00000  -0.00119   0.00001
 144        7D-2        0.00001   0.00666  -0.00000   0.00000  -0.01106
 145 11  N  1S         -0.00000   0.00000   0.00001   0.02797  -0.00000
 146        2S         -0.00001   0.00000   0.00002   0.04509  -0.00001
 147        2PX        -0.00000   0.00001   0.00003   0.05996  -0.00001
 148        2PY         0.00001   0.04424   0.00000  -0.00000  -0.02692
 149        2PZ         0.03029  -0.00000  -0.00000   0.00001   0.00004
 150        3S          0.00002  -0.00001  -0.00006  -0.13106   0.00001
 151        3PX        -0.00000   0.00001   0.00003   0.08100  -0.00002
 152        3PY         0.00002   0.06642  -0.00000  -0.00000  -0.04179
 153        3PZ         0.04825  -0.00001  -0.00000   0.00002   0.00006
 154        4S          0.00001   0.00001  -0.00010  -0.17473   0.00001
 155        4PX        -0.00000   0.00001   0.00001   0.05010  -0.00002
 156        4PY         0.00001   0.04940   0.00000   0.00000  -0.03782
 157        4PZ         0.04198  -0.00001   0.00000   0.00001   0.00004
 158        5S          0.00000   0.00001  -0.00003  -0.05305   0.00000
 159        5PX         0.00002   0.00000  -0.00000  -0.01545   0.00000
 160        5PY        -0.00001  -0.01223   0.00000  -0.00000   0.00744
 161        5PZ        -0.00848  -0.00000  -0.00000  -0.00000  -0.00001
 162        6D 0       -0.00000  -0.00000  -0.00000  -0.00173   0.00000
 163        6D+1        0.00246  -0.00000  -0.00000   0.00000   0.00000
 164        6D-1       -0.00000  -0.00000  -0.00005   0.00000   0.00000
 165        6D+2        0.00000   0.00000   0.00000   0.00235  -0.00000
 166        6D-2        0.00000   0.00402   0.00000  -0.00000  -0.00201
 167        7D 0       -0.00000  -0.00000   0.00000  -0.00325  -0.00000
 168        7D+1        0.01212  -0.00000   0.00000   0.00000   0.00000
 169        7D-1       -0.00000  -0.00000   0.00075   0.00000   0.00000
 170        7D+2        0.00000   0.00000  -0.00000   0.00355  -0.00000
 171        7D-2        0.00000   0.01117  -0.00000   0.00000  -0.00845
                          16        17        18        19        20
                           O         O         O         O         V
     Eigenvalues --    -0.37465  -0.37353  -0.33669  -0.23010  -0.00804
   1 1   C  1S          0.00000  -0.00370   0.00000   0.00000   0.00426
   2        2S          0.00000  -0.00617   0.00000   0.00001   0.00758
   3        2PX         0.00001  -0.06927   0.00002   0.00000   0.02649
   4        2PY         0.00003  -0.00001  -0.06472  -0.00001  -0.00000
   5        2PZ         0.06515   0.00001  -0.00000   0.22878   0.00000
   6        3S         -0.00001   0.02229   0.00000  -0.00003  -0.03565
   7        3PX         0.00001  -0.10114   0.00002   0.00000   0.02378
   8        3PY         0.00004  -0.00002  -0.09682  -0.00000  -0.00000
   9        3PZ         0.10447   0.00001  -0.00001   0.35121  -0.00000
  10        4S         -0.00001  -0.08127   0.00009  -0.00003   0.10833
  11        4PX         0.00001  -0.01093  -0.00006   0.00001  -0.15317
  12        4PY         0.00007   0.00002  -0.03221   0.00004  -0.00008
  13        4PZ         0.07915   0.00001  -0.00000   0.34339   0.00005
  14        5S         -0.00004   0.16566  -0.00012  -0.00021  -2.48705
  15        5PX         0.00003  -0.06170   0.00005   0.00006   1.37322
  16        5PY         0.00004  -0.00004   0.02506  -0.00022  -0.00010
  17        5PZ        -0.02531   0.00000   0.00002   0.13853   0.00022
  18        6D 0       -0.00000  -0.00087  -0.00000  -0.00000   0.00485
  19        6D+1       -0.00867  -0.00000  -0.00000  -0.00584  -0.00000
  20        6D-1       -0.00000   0.00000  -0.00000  -0.00000   0.00000
  21        6D+2       -0.00000   0.00784   0.00000  -0.00000  -0.00214
  22        6D-2        0.00000   0.00000  -0.01013   0.00000   0.00000
  23        7D 0       -0.00000   0.00580  -0.00000  -0.00001   0.01613
  24        7D+1       -0.03712  -0.00000  -0.00000  -0.01346  -0.00001
  25        7D-1       -0.00000  -0.00000   0.00000  -0.00000  -0.00002
  26        7D+2       -0.00000   0.00995   0.00001   0.00000   0.02873
  27        7D-2        0.00001  -0.00000  -0.04794   0.00001   0.00001
  28 2   C  1S         -0.00000   0.00305  -0.00941  -0.00000   0.02979
  29        2S         -0.00000   0.00485  -0.01500  -0.00000   0.04905
  30        2PX        -0.00003   0.04150  -0.04423  -0.00001  -0.02683
  31        2PY        -0.00005  -0.00937   0.04534  -0.00000   0.02173
  32        2PZ        -0.05110  -0.00000  -0.00002  -0.04129  -0.00002
  33        3S          0.00000  -0.01377   0.04043   0.00001  -0.15381
  34        3PX        -0.00004   0.05392  -0.06504  -0.00001  -0.04615
  35        3PY        -0.00007  -0.01362   0.05854   0.00000   0.04085
  36        3PZ        -0.06492  -0.00000  -0.00002  -0.04806  -0.00001
  37        4S          0.00003  -0.00730   0.05141   0.00002  -0.34633
  38        4PX        -0.00009   0.03755  -0.05109  -0.00007  -0.14952
  39        4PY        -0.00007  -0.01125   0.04237  -0.00001   0.05479
  40        4PZ        -0.04018  -0.00001  -0.00002  -0.03309  -0.00026
  41        5S         -0.00001   0.03056   0.07248  -0.00039   0.90450
  42        5PX        -0.00001   0.00243  -0.02731   0.00000   0.02229
  43        5PY        -0.00002   0.00603   0.01162  -0.00011  -0.17290
  44        5PZ        -0.00211  -0.00000  -0.00002  -0.04661  -0.00024
  45        6D 0       -0.00002   0.00255  -0.00233  -0.00002   0.00078
  46        6D+1       -0.00583  -0.00001   0.00000  -0.01091   0.00000
  47        6D-1        0.00167  -0.00000   0.00000   0.00778   0.00000
  48        6D+2        0.00000   0.00292  -0.00171   0.00001  -0.00065
  49        6D-2        0.00001  -0.00080  -0.00242   0.00001   0.00209
  50        7D 0       -0.00001  -0.00012   0.00196  -0.00001  -0.01744
  51        7D+1       -0.00195   0.00000   0.00001  -0.01670   0.00004
  52        7D-1        0.00864   0.00000   0.00000   0.02359   0.00002
  53        7D+2       -0.00001   0.00549   0.00534  -0.00000  -0.00556
  54        7D-2        0.00001  -0.00283  -0.00330  -0.00001  -0.00152
  55 3   H  1S          0.00011  -0.02227  -0.00204   0.00010   0.00316
  56        2S          0.00014  -0.03522  -0.00379   0.00018   0.04130
  57        3S          0.00007  -0.02162  -0.01853   0.00013  -0.16417
  58        4PX         0.00001   0.00054  -0.00076   0.00001  -0.00733
  59        4PY         0.00001  -0.00408   0.00143   0.00001  -0.00842
  60        4PZ        -0.00190  -0.00001  -0.00000  -0.00230  -0.00002
  61 4   H  1S          0.04308   0.02179  -0.01760   0.05705  -0.00965
  62        2S          0.07235   0.03408  -0.03026   0.10350   0.07494
  63        3S          0.03657   0.01370  -0.01490   0.10472  -0.19795
  64        4PX        -0.00467   0.00029  -0.00093  -0.00391   0.00406
  65        4PY         0.00166  -0.00018   0.00306   0.00035   0.00316
  66        4PZ         0.00330   0.00297  -0.00267   0.00347  -0.00804
  67 5   H  1S         -0.04319   0.02171  -0.01758  -0.05716  -0.00962
  68        2S         -0.07248   0.03395  -0.03024  -0.10367   0.07492
  69        3S         -0.03662   0.01363  -0.01487  -0.10480  -0.19710
  70        4PX         0.00465   0.00031  -0.00093   0.00389   0.00404
  71        4PY        -0.00167  -0.00018   0.00305  -0.00036   0.00315
  72        4PZ         0.00332  -0.00296   0.00268   0.00349   0.00805
  73 6   C  1S         -0.00000   0.00306   0.00941  -0.00000   0.02978
  74        2S         -0.00000   0.00485   0.01499  -0.00000   0.04903
  75        2PX         0.00000   0.04151   0.04421  -0.00000  -0.02684
  76        2PY        -0.00004   0.00938   0.04534  -0.00001  -0.02175
  77        2PZ        -0.05110   0.00000  -0.00000  -0.04129   0.00000
  78        3S          0.00001  -0.01378  -0.04043   0.00000  -0.15374
  79        3PX         0.00000   0.05394   0.06501  -0.00001  -0.04616
  80        3PY        -0.00005   0.01363   0.05854  -0.00000  -0.04088
  81        3PZ        -0.06492   0.00001  -0.00000  -0.04806  -0.00000
  82        4S         -0.00001  -0.00734  -0.05138  -0.00001  -0.34609
  83        4PX         0.00004   0.03756   0.05107   0.00004  -0.14954
  84        4PY        -0.00005   0.01127   0.04234  -0.00001  -0.05484
  85        4PZ        -0.04017   0.00001  -0.00001  -0.03310   0.00008
  86        5S         -0.00002   0.03060  -0.07252   0.00038   0.90487
  87        5PX         0.00001   0.00244   0.02731  -0.00002   0.02211
  88        5PY        -0.00001  -0.00604   0.01163  -0.00010   0.17273
  89        5PZ        -0.00211   0.00000  -0.00001  -0.04662   0.00006
  90        6D 0        0.00000   0.00255   0.00233   0.00001   0.00078
  91        6D+1       -0.00583   0.00000   0.00000  -0.01091  -0.00000
  92        6D-1       -0.00167  -0.00000  -0.00000  -0.00778  -0.00000
  93        6D+2       -0.00000   0.00292   0.00171  -0.00000  -0.00065
  94        6D-2        0.00001   0.00080  -0.00242   0.00000  -0.00209
  95        7D 0        0.00000  -0.00012  -0.00196  -0.00000  -0.01744
  96        7D+1       -0.00195  -0.00000   0.00000  -0.01669  -0.00003
  97        7D-1       -0.00864  -0.00000   0.00000  -0.02360   0.00001
  98        7D+2        0.00000   0.00549  -0.00534   0.00000  -0.00556
  99        7D-2       -0.00000   0.00283  -0.00331  -0.00001   0.00152
 100 7   H  1S         -0.04312   0.02177   0.01758  -0.05709  -0.00965
 101        2S         -0.07240   0.03405   0.03024  -0.10356   0.07493
 102        3S         -0.03660   0.01368   0.01489  -0.10476  -0.19779
 103        4PX         0.00466   0.00030   0.00093   0.00390   0.00405
 104        4PY         0.00166   0.00018   0.00306   0.00036  -0.00316
 105        4PZ         0.00331  -0.00297  -0.00267   0.00348   0.00804
 106 8   H  1S          0.04315   0.02174   0.01758   0.05712  -0.00963
 107        2S          0.07243   0.03401   0.03024   0.10360   0.07487
 108        3S          0.03660   0.01366   0.01488   0.10474  -0.19729
 109        4PX        -0.00466   0.00030   0.00093  -0.00390   0.00405
 110        4PY        -0.00167   0.00018   0.00306  -0.00036  -0.00316
 111        4PZ         0.00331   0.00297   0.00267   0.00349  -0.00804
 112 9   H  1S         -0.00005  -0.02227   0.00204  -0.00003   0.00317
 113        2S         -0.00007  -0.03523   0.00380  -0.00006   0.04130
 114        3S         -0.00002  -0.02161   0.01855  -0.00003  -0.16415
 115        4PX        -0.00001   0.00054   0.00075  -0.00000  -0.00733
 116        4PY         0.00000   0.00408   0.00143   0.00000   0.00841
[...]
   2. BD (   1) C   1 - C   6        /117. RY*(   2) C  10                    0.88    1.47    0.046
   2. BD (   1) C   1 - C   6        /160. BD*(   1) C   1 - C   2            0.46    1.07    0.028
   2. BD (   1) C   1 - C   6        /162. BD*(   1) C   1 - C  10            0.91    1.24    0.042
   2. BD (   1) C   1 - C   6        /163. BD*(   1) C   2 - H   3            0.60    1.04    0.032
   2. BD (   1) C   1 - C   6        /166. BD*(   1) C   6 - H   7            0.26    1.03    0.021
   2. BD (   1) C   1 - C   6        /167. BD*(   1) C   6 - H   8            0.26    1.03    0.021
   2. BD (   1) C   1 - C   6        /169. BD*(   1) C  10 - N  11            2.02    1.56    0.071
   2. BD (   1) C   1 - C   6        /170. BD*(   2) C  10 - N  11            1.55    0.75    0.043
   3. BD (   1) C   1 - C  10        / 21. RY*(   2) C   1                    0.52    2.21    0.043
   3. BD (   1) C   1 - C  10        / 42. RY*(   1) C   2                    0.60    1.51    0.038
   3. BD (   1) C   1 - C  10        / 79. RY*(   1) C   6                    0.60    1.51    0.038
   3. BD (   1) C   1 - C  10        /122. RY*(   7) C  10                    0.30    3.88    0.043
   3. BD (   1) C   1 - C  10        /123. RY*(   8) C  10                    0.50   19.03    0.124
   3. BD (   1) C   1 - C  10        /138. RY*(   1) N  11                    1.28    2.84    0.076
   3. BD (   1) C   1 - C  10        /160. BD*(   1) C   1 - C   2            0.61    1.16    0.033
   3. BD (   1) C   1 - C  10        /161. BD*(   1) C   1 - C   6            0.61    1.16    0.033
   3. BD (   1) C   1 - C  10        /169. BD*(   1) C  10 - N  11            4.79    1.66    0.113
   4. BD (   1) C   2 - H   3        / 21. RY*(   2) C   1                    0.28    1.98    0.030
   4. BD (   1) C   2 - H   3        /161. BD*(   1) C   1 - C   6            2.10    0.93    0.056
   5. BD (   1) C   2 - H   4        / 18. LP*(   1) C   1                    4.03    0.46    0.059
   5. BD (   1) C   2 - H   4        /162. BD*(   1) C   1 - C  10            0.93    1.10    0.041
   6. BD (   1) C   2 - H   5        / 18. LP*(   1) C   1                    4.05    0.46    0.059
   6. BD (   1) C   2 - H   5        /162. BD*(   1) C   1 - C  10            0.93    1.10    0.041
   7. BD (   1) C   6 - H   7        / 18. LP*(   1) C   1                    4.04    0.46    0.059
   7. BD (   1) C   6 - H   7        /162. BD*(   1) C   1 - C  10            0.93    1.10    0.041
   8. BD (   1) C   6 - H   8        / 18. LP*(   1) C   1                    4.04    0.46    0.059
   8. BD (   1) C   6 - H   8        /162. BD*(   1) C   1 - C  10            0.93    1.10    0.041
   9. BD (   1) C   6 - H   9        / 21. RY*(   2) C   1                    0.28    1.98    0.030
   9. BD (   1) C   6 - H   9        /160. BD*(   1) C   1 - C   2            2.10    0.93    0.056
  10. BD (   1) C  10 - N  11        / 21. RY*(   2) C   1                    0.29    2.49    0.034
  10. BD (   1) C  10 - N  11        /116. RY*(   1) C  10                    0.52    2.04    0.041
  10. BD (   1) C  10 - N  11        /162. BD*(   1) C   1 - C  10            4.41    1.62    0.107
  11. BD (   2) C  10 - N  11        /160. BD*(   1) C   1 - C   2            1.78    0.75    0.046
  11. BD (   2) C  10 - N  11        /161. BD*(   1) C   1 - C   6            1.78    0.75    0.046
  12. BD (   3) C  10 - N  11        / 18. LP*(   1) C   1                   20.48    0.26    0.097
  12. BD (   3) C  10 - N  11        / 37. RY*(  18) C   1                    0.48    1.20    0.032
  12. BD (   3) C  10 - N  11        /171. BD*(   3) C  10 - N  11            1.41    0.42    0.032
  13. CR (   1) C   1                / 43. RY*(   2) C   2                    0.33   11.47    0.077
  13. CR (   1) C   1                / 80. RY*(   2) C   6                    0.33   11.47    0.077
  13. CR (   1) C   1                /116. RY*(   1) C  10                    0.81   11.10    0.121
  13. CR (   1) C   1                /118. RY*(   3) C  10                    0.30   11.20    0.073
  13. CR (   1) C   1                /169. BD*(   1) C  10 - N  11            2.12   11.00    0.193
  14. CR (   1) C   2                / 22. RY*(   3) C   1                    0.45   11.57    0.091
  15. CR (   1) C   6                / 22. RY*(   3) C   1                    0.45   11.57    0.091
  16. CR (   1) C  10                / 21. RY*(   2) C   1                    0.79   11.52    0.121
  16. CR (   1) C  10                /139. RY*(   2) N  11                    0.81   10.94    0.119
  16. CR (   1) C  10                /160. BD*(   1) C   1 - C   2            0.31   10.48    0.072
  16. CR (   1) C  10                /161. BD*(   1) C   1 - C   6            0.31   10.48    0.072
  17. CR (   1) N  11                /116. RY*(   1) C  10                    3.48   15.06    0.290
  17. CR (   1) N  11                /162. BD*(   1) C   1 - C  10            2.29   14.64    0.233
  18. LP*(   1) C   1                / 37. RY*(  18) C   1                    0.75    0.93    0.082
  18. LP*(   1) C   1                /119. RY*(   4) C  10                    0.36    1.08    0.061
  18. LP*(   1) C   1                /164. BD*(   1) C   2 - H   4            0.88    0.43    0.060
  18. LP*(   1) C   1                /165. BD*(   1) C   2 - H   5            0.88    0.43    0.060
  18. LP*(   1) C   1                /166. BD*(   1) C   6 - H   7            0.88    0.43    0.060
  18. LP*(   1) C   1                /167. BD*(   1) C   6 - H   8            0.88    0.43    0.060
  18. LP*(   1) C   1                /171. BD*(   3) C  10 - N  11            7.85    0.16    0.109
  19. LP (   1) N  11                /116. RY*(   1) C  10                    9.17    1.51    0.149
  19. LP (   1) N  11                /125. RY*(  10) C  10                    0.52    0.97    0.029
  19. LP (   1) N  11                /135. RY*(  20) C  10                    0.61    3.19    0.056
  19. LP (   1) N  11                /138. RY*(   1) N  11                    0.35    2.59    0.038
  19. LP (   1) N  11                /162. BD*(   1) C   1 - C  10            5.38    1.09    0.097


 Natural Bond Orbitals (Summary):

                                                            Principal Delocalizations
           NBO                        Occupancy    Energy   (geminal,vicinal,remote)
 ====================================================================================
 Molecular unit  1  (C4H6N)
     1. BD (   1) C   1 - C   2          0.98798    -0.65988  169(v),170(v),162(g),117(v)
                                                    79(v),168(v),161(g),165(g)
                                                    164(g)
     2. BD (   1) C   1 - C   6          0.98798    -0.65988  169(v),170(v),162(g),117(v)
                                                    42(v),163(v),160(g),167(g)
                                                    166(g)
     3. BD (   1) C   1 - C  10          0.99084    -0.75594  169(g),138(v),160(g),161(g)
                                                    42(v),79(v),21(g),123(g)
                                                    122(g)
     4. BD (   1) C   2 - H   3          0.99403    -0.52671  161(v),21(v)
     5. BD (   1) C   2 - H   4          0.97676    -0.51957  18(v),162(v)
     6. BD (   1) C   2 - H   5          0.97669    -0.51953  18(v),162(v)
     7. BD (   1) C   6 - H   7          0.97673    -0.51955  18(v),162(v)
     8. BD (   1) C   6 - H   8          0.97671    -0.51955  18(v),162(v)
     9. BD (   1) C   6 - H   9          0.99403    -0.52671  160(v),21(v)
    10. BD (   1) C  10 - N  11          0.99681    -1.03607  162(g),116(g),21(v)
    11. BD (   2) C  10 - N  11          0.99192    -0.34179  160(v),161(v)
    12. BD (   3) C  10 - N  11          0.91076    -0.32329  18(v),171(g),37(v)
    13. CR (   1) C   1                  0.99952   -10.09622  169(v),116(v),43(v),80(v)
                                                    118(v)
    14. CR (   1) C   2                  0.99965   -10.05259  22(v)
    15. CR (   1) C   6                  0.99965   -10.05259  22(v)
    16. CR (   1) C  10                  0.99960   -10.07418  139(v),21(v),160(v),161(v)
    17. CR (   1) N  11                  0.99979   -14.06199  116(v),162(v)
    18. LP*(   1) C   1                  0.16483    -0.05860  171(v),165(v),167(v),166(v)
                                                    164(v),37(g),119(v)
    19. LP (   1) N  11                  0.98627    -0.50939  116(v),162(v),135(v),125(v)
                                                    138(g)
    20. RY*(   1) C   1                  0.00147     0.90594   
    21. RY*(   2) C   1                  0.00062     1.44996   
    22. RY*(   3) C   1                  0.00060     1.51767   
    23. RY*(   4) C   1                  0.00038     2.14957   
    24. RY*(   5) C   1                  0.00028     1.25128   
    25. RY*(   6) C   1                  0.00021     2.10676   
    26. RY*(   7) C   1                  0.00016     1.93051   
    27. RY*(   8) C   1                  0.00011     3.38328   
    28. RY*(   9) C   1                  0.00006     2.64595   
    29. RY*(  10) C   1                  0.00004     2.85230   
    30. RY*(  11) C   1                  0.00003     1.62010   
    31. RY*(  12) C   1                  0.00001     3.54013   
    32. RY*(  13) C   1                  0.00000     2.37610   
    33. RY*(  14) C   1                  0.00000     1.97975   
    34. RY*(  15) C   1                  0.00000    20.57429   
    35. RY*(  16) C   1                  0.00000     2.10722   
    36. RY*(  17) C   1                  0.00000     1.03426   
    37. RY*(  18) C   1                  0.00000     0.87395   
    38. RY*(  19) C   1                  0.00000     1.97441   
    39. RY*(  20) C   1                  0.00000     0.87242   
    40. RY*(  21) C   1                  0.00000     2.27711   
    41. RY*(  22) C   1                  0.00000     3.10854   
    42. RY*(   1) C   2                  0.00169     0.74994   
    43. RY*(   2) C   2                  0.00021     1.37510   
    44. RY*(   3) C   2                  0.00013     1.45035   
    45. RY*(   4) C   2                  0.00011     1.15915   
    46. RY*(   5) C   2                  0.00006     1.12572   
    47. RY*(   6) C   2                  0.00007     1.26984   
    48. RY*(   7) C   2                  0.00003     2.06556   
    49. RY*(   8) C   2                  0.00001     0.65593   
    50. RY*(   9) C   2                  0.00000     2.69777   
    51. RY*(  10) C   2                  0.00000     0.94053   
    52. RY*(  11) C   2                  0.00000     0.39821   
    53. RY*(  12) C   2                  0.00000     2.98551   
    54. RY*(  13) C   2                  0.00000    21.34480   
    55. RY*(  14) C   2                  0.00000     3.43684   
    56. RY*(  15) C   2                  0.00000     2.94817   
    57. RY*(  16) C   2                  0.00000     3.15946   
    58. RY*(  17) C   2                  0.00000     0.73812   
    59. RY*(  18) C   2                  0.00000     2.85205   
    60. RY*(  19) C   2                  0.00000     2.49530   
    61. RY*(  20) C   2                  0.00000     1.25683   
    62. RY*(  21) C   2                  0.00000     1.32164   
    63. RY*(  22) C   2                  0.00000     3.27158   
    64. RY*(   1) H   3                  0.00026     0.85194   
    65. RY*(   2) H   3                  0.00008     2.03353   
    66. RY*(   3) H   3                  0.00006     1.91009   
    67. RY*(   4) H   3                  0.00004     2.15997   
    68. RY*(   5) H   3                  0.00001     2.58997   
    69. RY*(   1) H   4                  0.00025     0.96391   
    70. RY*(   2) H   4                  0.00010     1.95403   
    71. RY*(   3) H   4                  0.00004     1.99506   
    72. RY*(   4) H   4                  0.00003     2.13189   
    73. RY*(   5) H   4                  0.00001     2.47938   
    74. RY*(   1) H   5                  0.00025     0.96469   
    75. RY*(   2) H   5                  0.00010     1.95344   
    76. RY*(   3) H   5                  0.00004     1.99472   
    77. RY*(   4) H   5                  0.00003     2.13085   
    78. RY*(   5) H   5                  0.00001     2.47996   
    79. RY*(   1) C   6                  0.00169     0.74998   
    80. RY*(   2) C   6                  0.00021     1.37526   
    81. RY*(   3) C   6                  0.00013     1.45004   
    82. RY*(   4) C   6                  0.00011     1.15905   
    83. RY*(   5) C   6                  0.00006     1.12576   
    84. RY*(   6) C   6                  0.00007     1.26990   
    85. RY*(   7) C   6                  0.00003     2.06527   
    86. RY*(   8) C   6                  0.00001     0.65584   
    87. RY*(   9) C   6                  0.00000     2.69780   
    88. RY*(  10) C   6                  0.00000     0.94046   
    89. RY*(  11) C   6                  0.00000     0.39826   
    90. RY*(  12) C   6                  0.00000     2.98549   
    91. RY*(  13) C   6                  0.00000    21.34538   
    92. RY*(  14) C   6                  0.00000     3.43686   
    93. RY*(  15) C   6                  0.00000     2.94770   
    94. RY*(  16) C   6                  0.00000     3.15953   
    95. RY*(  17) C   6                  0.00000     0.73842   
    96. RY*(  18) C   6                  0.00000     2.85191   
    97. RY*(  19) C   6                  0.00000     2.49575   
    98. RY*(  20) C   6                  0.00000     1.25651   
    99. RY*(  21) C   6                  0.00000     1.32160   
   100. RY*(  22) C   6                  0.00000     3.27164   
   101. RY*(   1) H   7                  0.00025     0.96410   
   102. RY*(   2) H   7                  0.00010     1.95385   
   103. RY*(   3) H   7                  0.00004     1.99487   
   104. RY*(   4) H   7                  0.00003     2.13167   
   105. RY*(   5) H   7                  0.00001     2.47958   
   106. RY*(   1) H   8                  0.00025     0.96440   
   107. RY*(   2) H   8                  0.00010     1.95370   
   108. RY*(   3) H   8                  0.00004     1.99486   
   109. RY*(   4) H   8                  0.00003     2.13107   
   110. RY*(   5) H   8                  0.00001     2.47980   
   111. RY*(   1) H   9                  0.00026     0.85187   
   112. RY*(   2) H   9                  0.00008     2.03358   
   113. RY*(   3) H   9                  0.00006     1.91009   
   114. RY*(   4) H   9                  0.00004     2.15998   
   115. RY*(   5) H   9                  0.00001     2.58997   
   116. RY*(   1) C  10                  0.00847     1.00222   
   117. RY*(   2) C  10                  0.00230     0.80763   
   118. RY*(   3) C  10                  0.00030     1.10447   
   119. RY*(   4) C  10                  0.00011     1.02488   
   120. RY*(   5) C  10                  0.00009     0.97732   
   121. RY*(   6) C  10                  0.00006     2.35726   
   122. RY*(   7) C  10                  0.00000     3.12097   
   123. RY*(   8) C  10                  0.00000    18.27024   
   124. RY*(   9) C  10                  0.00000     2.62285   
   125. RY*(  10) C  10                  0.00000     0.46472   
   126. RY*(  11) C  10                  0.00000     0.45126   
   127. RY*(  12) C  10                  0.00000     2.62994   
   128. RY*(  13) C  10                  0.00001     2.71732   
   129. RY*(  14) C  10                  0.00000     2.67436   
   130. RY*(  15) C  10                  0.00000     2.37658   
   131. RY*(  16) C  10                  0.00000     2.57597   
   132. RY*(  17) C  10                  0.00000     2.87044   
   133. RY*(  18) C  10                  0.00000     1.43534   
   134. RY*(  19) C  10                  0.00000     3.71943   
   135. RY*(  20) C  10                  0.00000     2.68147   
   136. RY*(  21) C  10                  0.00000     3.08947   
   137. RY*(  22) C  10                  0.00000     2.27036   
   138. RY*(   1) N  11                  0.00087     2.08010   
   139. RY*(   2) N  11                  0.00013     0.86422   
   140. RY*(   3) N  11                  0.00004     0.93215   
   141. RY*(   4) N  11                  0.00003     1.45306   
   142. RY*(   5) N  11                  0.00001     2.19611   
   143. RY*(   6) N  11                  0.00001     3.04462   
   144. RY*(   7) N  11                  0.00000    34.45063   
   145. RY*(   8) N  11                  0.00000     1.68043   
   146. RY*(   9) N  11                  0.00000     2.99684   
   147. RY*(  10) N  11                  0.00000     0.62200   
   148. RY*(  11) N  11                  0.00000     1.59325   
   149. RY*(  12) N  11                  0.00000     2.88102   
   150. RY*(  13) N  11                  0.00001     1.76830   
   151. RY*(  14) N  11                  0.00000     4.45848   
   152. RY*(  15) N  11                  0.00000     1.49388   
   153. RY*(  16) N  11                  0.00000     4.78600   
   154. RY*(  17) N  11                  0.00000     1.24569   
   155. RY*(  18) N  11                  0.00000     4.58709   
   156. RY*(  19) N  11                  0.00000     2.13281   
   157. RY*(  20) N  11                  0.00000     4.86813   
   158. RY*(  21) N  11                  0.00001     1.49116   
   159. RY*(  22) N  11                  0.00000     4.68986   
   160. BD*(   1) C   1 - C   2          0.00871     0.40578   
   161. BD*(   1) C   1 - C   6          0.00871     0.40579   
   162. BD*(   1) C   1 - C  10          0.01438     0.57971   
   163. BD*(   1) C   2 - H   3          0.00199     0.38419   
   164. BD*(   1) C   2 - H   4          0.00186     0.36866   
   165. BD*(   1) C   2 - H   5          0.00185     0.36862   
   166. BD*(   1) C   6 - H   7          0.00186     0.36863   
   167. BD*(   1) C   6 - H   8          0.00186     0.36864   
   168. BD*(   1) C   6 - H   9          0.00199     0.38419   
   169. BD*(   1) C  10 - N  11          0.00611     0.90218   
   170. BD*(   2) C  10 - N  11          0.01452     0.09492   
   171. BD*(   3) C  10 - N  11          0.00194     0.10118   
       -------------------------------
              Total Lewis   17.74572  ( 98.5873%)
        Valence non-Lewis    0.23061  (  1.2812%)
        Rydberg non-Lewis    0.02367  (  0.1315%)
       -------------------------------
            Total unit  1   18.00000  (100.0000%)
           Charge unit  1    0.50000
 Leave Link  607 at Wed Sep  5 16:44:15 2018, MaxMem=   805306368 cpu:               8.0 elap:               1.0
 (Enter /home/g16/l9999.exe)
 1\1\GINC-PC13\Stability\UB3LYP\6-311+G(2d,p)\C4H6N1(2)\MASKER\05-Sep-2
 018\0\\#p b3lyp/6-311+g(2d,p) pop=(full,nboread) stable=opt g09def\\CC
 N-c1-1sp 1\\0,2\C,0,-0.307459,-0.000002,0.000072\C,0,-1.060186,-1.2932
 5,0.000012\H,0,-0.395393,-2.155588,0.001489\H,0,-1.713808,-1.358028,0.
 877941\H,0,-1.711363,-1.359357,-0.879677\C,0,-1.059993,1.293357,-0.000
 018\H,0,-1.712799,1.3586,-0.878543\H,0,-1.711976,1.359207,0.879072\H,0
 ,-0.395076,2.155601,-0.00062\C,0,1.080092,-0.000153,0.000013\N,0,2.246
 527,-0.00002,-0.000018\\Version=ES64L-G16RevA.03\State=2-A\HF=-210.802
 9131\S2=0.76435\S2-1=0.\S2A=0.7501\RMSD=7.293e-09\Dipole=-1.7243901,0.
 0000417,-0.0000424\Quadrupole=-4.5670214,3.0937648,1.4732565,0.0000019
 ,0.0001303,0.0000488\PG=C01 [X(C4H6N1)]\\@


 YOU CAN LEAD A BOY TO COLLEGE....
 BUT YOU CANNOT MAKE HIM THINK....
           ELBERT HUBBARD
 Job cpu time:       0 days  0 hours  5 minutes 54.0 seconds.
 Elapsed time:       0 days  0 hours  0 minutes 46.0 seconds.
 File lengths (MBytes):  RWF=    145 Int=      0 D2E=      0 Chk=      5 Scr=      1
 Normal termination of Gaussian 16 at Wed Sep  5 16:44:15 2018.
