 Entering Gaussian System, Link 0=g16
 Input=CF2-c1-1sp.gjf
 Output=CF2-c1-1sp.log
 Initial command:
 /home/g16/l1.exe "/home/masker/scratch/Gau-27806.inp" -scrdir="/home/masker/scratch/"
 Entering Link 1 = /home/g16/l1.exe PID=     27807.
  
 Copyright (c) 1988,1990,1992,1993,1995,1998,2003,2009,2016,
            Gaussian, Inc.  All Rights Reserved.
  
 This is part of the Gaussian(R) 16 program.  It is based on
 the Gaussian(R) 09 system (copyright 2009, Gaussian, Inc.),
 the Gaussian(R) 03 system (copyright 2003, Gaussian, Inc.),
 the Gaussian(R) 98 system (copyright 1998, Gaussian, Inc.),
 the Gaussian(R) 94 system (copyright 1995, Gaussian, Inc.),
 the Gaussian 92(TM) system (copyright 1992, Gaussian, Inc.),
 the Gaussian 90(TM) system (copyright 1990, Gaussian, Inc.),
 the Gaussian 88(TM) system (copyright 1988, Gaussian, Inc.),
 the Gaussian 86(TM) system (copyright 1986, Carnegie Mellon
 University), and the Gaussian 82(TM) system (copyright 1983,
 Carnegie Mellon University). Gaussian is a federally registered
 trademark of Gaussian, Inc.
  
 This software contains proprietary and confidential information,
 including trade secrets, belonging to Gaussian, Inc.
  
 This software is provided under written license and may be
 used, copied, transmitted, or stored only in accord with that
 written license.
  
 The following legend is applicable only to US Government
 contracts under FAR:
  
                    RESTRICTED RIGHTS LEGEND
  
 Use, reproduction and disclosure by the US Government is
 subject to restrictions as set forth in subparagraphs (a)
 and (c) of the Commercial Computer Software - Restricted
 Rights clause in FAR 52.227-19.
  
 Gaussian, Inc.
 340 Quinnipiac St., Bldg. 40, Wallingford CT 06492
  
  
 ---------------------------------------------------------------
 Warning -- This program may not be used in any manner that
 competes with the business of Gaussian, Inc. or will provide
 assistance to any competitor of Gaussian, Inc.  The licensee
 of this program is prohibited from giving any competitor of
 Gaussian, Inc. access to this program.  By using this program,
 the user acknowledges that Gaussian, Inc. is engaged in the
 business of creating and licensing software in the field of
 computational chemistry and represents and warrants to the
 licensee that it is not a competitor of Gaussian, Inc. and that
 it will not use this program in any manner prohibited above.
 ---------------------------------------------------------------
  

 Cite this work as:
 Gaussian 16, Revision A.03,
 M. J. Frisch, G. W. Trucks, H. B. Schlegel, G. E. Scuseria, 
 M. A. Robb, J. R. Cheeseman, G. Scalmani, V. Barone, 
 G. A. Petersson, H. Nakatsuji, X. Li, M. Caricato, A. V. Marenich, 
 J. Bloino, B. G. Janesko, R. Gomperts, B. Mennucci, H. P. Hratchian, 
 J. V. Ortiz, A. F. Izmaylov, J. L. Sonnenberg, D. Williams-Young, 
 F. Ding, F. Lipparini, F. Egidi, J. Goings, B. Peng, A. Petrone, 
 T. Henderson, D. Ranasinghe, V. G. Zakrzewski, J. Gao, N. Rega, 
 G. Zheng, W. Liang, M. Hada, M. Ehara, K. Toyota, R. Fukuda, 
 J. Hasegawa, M. Ishida, T. Nakajima, Y. Honda, O. Kitao, H. Nakai, 
 T. Vreven, K. Throssell, J. A. Montgomery, Jr., J. E. Peralta, 
 F. Ogliaro, M. J. Bearpark, J. J. Heyd, E. N. Brothers, K. N. Kudin, 
 V. N. Staroverov, T. A. Keith, R. Kobayashi, J. Normand, 
 K. Raghavachari, A. P. Rendell, J. C. Burant, S. S. Iyengar, 
 J. Tomasi, M. Cossi, J. M. Millam, M. Klene, C. Adamo, R. Cammi, 
 J. W. Ochterski, R. L. Martin, K. Morokuma, O. Farkas, 
 J. B. Foresman, and D. J. Fox, Gaussian, Inc., Wallingford CT, 2016.
 
 ******************************************
 Gaussian 16:  ES64L-G16RevA.03 25-Dec-2016
                 5-Sep-2018 
 ******************************************
 %nprocshared=8
 Will use up to    8 processors via shared memory.
 %mem=6GB
 %chk=CF2-c1-1sp.chk
 -----------------------------------------------------------
 #p b3lyp/6-311+g(2d,p) pop=(full,nboread) stable=opt g09def
 -----------------------------------------------------------
 1/38=1,158=3,167=1,172=1/1;
 2/12=2,17=6,18=5,40=1/2;
 3/5=4,6=6,7=112,11=2,25=1,27=10,30=1,74=-5,75=-4,158=3/1,2,3;
 4/60=-1/1;
 5/5=2,38=5,87=10/2;
 6/7=3,28=1,40=2,87=10/1,7;
 8/6=1,10=90,11=11,87=10/1;
 9/8=-3,42=1,46=1,87=10/14;
 5/5=2,8=3,17=40,38=5,87=10/8(-2);
 6/7=3,28=1,40=2,87=10/1,7;
 99/5=1,9=1/99;
 Using 2006 physical constants.
 Leave Link    1 at Wed Sep  5 16:46:49 2018, MaxMem=   805306368 cpu:               0.3 elap:               0.0
 (Enter /home/g16/l101.exe)
 ------------
 CF2-c1-1sp 1
 ------------
 Symbolic Z-matrix:
 Charge =  0 Multiplicity = 2
 C                    -0.03043   0.50786   0. 
 H                     0.73021   1.29292   0. 
 F                    -0.03043  -0.24112   1.10362 
 F                    -0.03043  -0.24112  -1.10362 
 
 ITRead=  0  0  0  0
 MicOpt= -1 -1 -1 -1
 NAtoms=      4 NQM=        4 NQMF=       0 NMMI=      0 NMMIF=      0
                NMic=       0 NMicF=      0.
                    Isotopes and Nuclear Properties:
 (Nuclear quadrupole moments (NQMom) in fm**2, nuclear magnetic moments (NMagM)
  in nuclear magnetons)

  Atom         1           2           3           4
 IAtWgt=          12           1          19          19
 AtmWgt=  12.0000000   1.0078250  18.9984032  18.9984032
 NucSpn=           0           1           1           1
 AtZEff=  -0.0000000  -0.0000000  -0.0000000  -0.0000000
 NQMom=    0.0000000   0.0000000   0.0000000   0.0000000
 NMagM=    0.0000000   2.7928460   2.6288670   2.6288670
 AtZNuc=   6.0000000   1.0000000   9.0000000   9.0000000
 Leave Link  101 at Wed Sep  5 16:46:49 2018, MaxMem=   805306368 cpu:               0.3 elap:               0.0
 (Enter /home/g16/l202.exe)
                          Input orientation:                          
 ---------------------------------------------------------------------
 Center     Atomic      Atomic             Coordinates (Angstroms)
 Number     Number       Type             X           Y           Z
 ---------------------------------------------------------------------
      1          6           0       -0.030426    0.507861    0.000000
      2          1           0        0.730212    1.292915    0.000000
      3          9           0       -0.030426   -0.241115    1.103620
      4          9           0       -0.030426   -0.241115   -1.103620
 ---------------------------------------------------------------------
                    Distance matrix (angstroms):
                    1          2          3          4
     1  C    0.000000
     2  H    1.093106   0.000000
     3  F    1.333770   2.037105   0.000000
     4  F    1.333770   2.037105   2.207240   0.000000
 Stoichiometry    CHF2(2)
 Framework group  CS[SG(CH),X(F2)]
 Deg. of freedom     4
 Full point group                 CS      NOp   2
 Largest Abelian subgroup         CS      NOp   2
 Largest concise Abelian subgroup CS      NOp   2
                         Standard orientation:                         
 ---------------------------------------------------------------------
 Center     Atomic      Atomic             Coordinates (Angstroms)
 Number     Number       Type             X           Y           Z
 ---------------------------------------------------------------------
      1          6           0       -0.030426    0.507861   -0.000000
      2          1           0        0.730212    1.292915    0.000000
      3          9           0       -0.030426   -0.241115    1.103620
      4          9           0       -0.030426   -0.241115   -1.103620
 ---------------------------------------------------------------------
 Rotational constants (GHZ):          67.3898528          10.8237066           9.4700642
 Leave Link  202 at Wed Sep  5 16:46:49 2018, MaxMem=   805306368 cpu:               0.0 elap:               0.0
 (Enter /home/g16/l301.exe)
 Standard basis: 6-311+G(2d,p) (5D, 7F)
 Ernie: Thresh=  0.10000D-02 Tol=  0.10000D-05 Strict=F.
 There are    55 symmetry adapted cartesian basis functions of A'  symmetry.
 There are    38 symmetry adapted cartesian basis functions of A"  symmetry.
 There are    51 symmetry adapted basis functions of A'  symmetry.
 There are    36 symmetry adapted basis functions of A"  symmetry.
    87 basis functions,   134 primitive gaussians,    93 cartesian basis functions
    13 alpha electrons       12 beta electrons
       nuclear repulsion energy        69.8492321864 Hartrees.
 IExCor=  402 DFT=T Ex+Corr=B3LYP ExCW=0 ScaHFX=  0.200000
 ScaDFX=  0.800000  0.720000  1.000000  0.810000 ScalE2=  1.000000  1.000000
 IRadAn=      4 IRanWt=     -1 IRanGd=            0 ICorTp=0 IEmpDi=  4
 NAtoms=    4 NActive=    4 NUniq=    3 SFac= 1.78D+00 NAtFMM=   60 NAOKFM=F Big=F
 Integral buffers will be    131072 words long.
 Raffenetti 2 integral format.
 Two-electron integral symmetry is turned on.
 Leave Link  301 at Wed Sep  5 16:46:49 2018, MaxMem=   805306368 cpu:               0.1 elap:               0.0
 (Enter /home/g16/l302.exe)
 NPDir=0 NMtPBC=     1 NCelOv=     1 NCel=       1 NClECP=     1 NCelD=      1
         NCelK=      1 NCelE2=     1 NClLst=     1 CellRange=     0.0.
 One-electron integrals computed using PRISM.
 One-electron integral symmetry used in STVInt
 NBasis=    87 RedAO= T EigKep=  2.45D-03  NBF=    51    36
 NBsUse=    87 1.00D-06 EigRej= -1.00D+00 NBFU=    51    36
 Precomputing XC quadrature grid using
 IXCGrd= 4 IRadAn=           4 IRanWt=          -1 IRanGd=           0 AccXCQ= 1.00D-10.
 Generated NRdTot=       0 NPtTot=           0 NUsed=           0 NTot=          32
 NSgBfM=    93    93    93    93    93 MxSgAt=     4 MxSgA2=     4.
 Leave Link  302 at Wed Sep  5 16:46:49 2018, MaxMem=   805306368 cpu:               0.5 elap:               0.1
 (Enter /home/g16/l303.exe)
 DipDrv:  MaxL=1.
 Leave Link  303 at Wed Sep  5 16:46:49 2018, MaxMem=   805306368 cpu:               0.1 elap:               0.0
 (Enter /home/g16/l401.exe)
 ExpMin= 4.38D-02 ExpMax= 1.14D+04 ExpMxC= 1.72D+03 IAcc=2 IRadAn=         4 AccDes= 0.00D+00
 Harris functional with IExCor=  402 and IRadAn=      -1 diagonalized for initial guess.
 HarFok:  IExCor=  402 AccDes= 0.00D+00 IRadAn=        -1 IDoV= 1 UseB2=F ITyADJ=14
 ICtDFT=  3500011 ScaDFX=  1.000000  1.000000  1.000000  1.000000
 FoFCou: FMM=F IPFlag=           0 FMFlag=      100000 FMFlg1=           0
         NFxFlg=           0 DoJE=T BraDBF=F KetDBF=T FulRan=T
         wScrn=  0.000000 ICntrl=       500 IOpCl=  0 I1Cent=   200000004 NGrid=           0
         NMat0=    1 NMatS0=      1 NMatT0=    0 NMatD0=    1 NMtDS0=    0 NMtDT0=    0
 Petite list used in FoFCou.
 Harris En= -238.351714569936    
 JPrj=0 DoOrth=F DoCkMO=F.
 Initial guess orbital symmetries:
 Alpha Orbitals:
       Occupied  (A') (A") (A') (A') (A") (A') (A") (A') (A') (A")
                 (A") (A') (A')
       Virtual   (A') (A") (A') (A') (A') (A") (A') (A") (A') (A")
                 (A') (A') (A') (A") (A") (A') (A') (A") (A') (A')
                 (A") (A') (A') (A') (A") (A') (A") (A") (A') (A')
                 (A") (A') (A") (A") (A') (A') (A") (A") (A') (A")
                 (A') (A') (A') (A") (A") (A') (A') (A') (A") (A')
                 (A") (A') (A') (A') (A") (A') (A") (A') (A") (A')
                 (A") (A") (A') (A") (A') (A") (A') (A") (A') (A')
                 (A") (A') (A") (A')
 Beta  Orbitals:
       Occupied  (A') (A") (A') (A') (A") (A') (A") (A') (A') (A")
                 (A") (A')
       Virtual   (A') (A') (A") (A') (A') (A') (A") (A') (A") (A')
                 (A") (A') (A') (A') (A") (A") (A') (A') (A") (A')
                 (A') (A") (A') (A') (A') (A") (A') (A") (A") (A')
                 (A') (A") (A') (A") (A") (A') (A') (A") (A") (A')
                 (A") (A') (A') (A') (A") (A") (A') (A') (A') (A")
                 (A') (A") (A') (A') (A') (A") (A') (A") (A') (A")
                 (A') (A") (A") (A') (A") (A') (A") (A') (A") (A')
                 (A') (A") (A') (A") (A')
 The electronic state of the initial guess is 2-A'.
 Initial guess <Sx>= 0.0000 <Sy>= 0.0000 <Sz>= 0.5000 <S**2>= 0.7500 S= 0.5000
 Leave Link  401 at Wed Sep  5 16:46:49 2018, MaxMem=   805306368 cpu:               0.6 elap:               0.1
 (Enter /home/g16/l502.exe)
 Keep R1 and R2 ints in memory in symmetry-blocked form, NReq=14667084.
 FoFCou: FMM=F IPFlag=           0 FMFlag=           0 FMFlg1=           0
         NFxFlg=           0 DoJE=F BraDBF=F KetDBF=F FulRan=T
         wScrn=  0.000000 ICntrl=       600 IOpCl=  0 I1Cent=           0 NGrid=           0
         NMat0=    1 NMatS0=   3828 NMatT0=    0 NMatD0=    1 NMtDS0=    0 NMtDT0=    0
 Petite list used in FoFCou.
 UHF open shell SCF:
 Using DIIS extrapolation, IDIIS=  1040.
 NGot=   805306368 LenX=   797935908 LenY=   797926818
 Requested convergence on RMS density matrix=1.00D-08 within 128 cycles.
 Requested convergence on MAX density matrix=1.00D-06.
 Requested convergence on             energy=1.00D-06.
 No special actions if energy rises.

 Cycle   1  Pass 1  IDiag  1:
 E= -238.381316121511    
 DIIS: error= 2.04D-02 at cycle   1 NSaved=   1.
 NSaved= 1 IEnMin= 1 EnMin= -238.381316121511     IErMin= 1 ErrMin= 2.04D-02
 ErrMax= 2.04D-02  0.00D+00 EMaxC= 1.00D-01 BMatC= 1.42D-01 BMatP= 1.42D-01
 IDIUse=3 WtCom= 7.96D-01 WtEn= 2.04D-01
 Coeff-Com:  0.100D+01
 Coeff-En:   0.100D+01
 Coeff:      0.100D+01
 Gap=     0.262 Goal=   None    Shift=    0.000
 Gap=     0.309 Goal=   None    Shift=    0.000
 GapD=    0.262 DampG=1.000 DampE=0.500 DampFc=0.5000 IDamp=-1.
 Damping current iteration by 5.00D-01
 RMSDP=1.91D-03 MaxDP=3.16D-02              OVMax= 5.52D-02

 Cycle   2  Pass 1  IDiag  1:
 E= -238.387891433730     Delta-E=       -0.006575312220 Rises=F Damp=T
 DIIS: error= 5.73D-03 at cycle   2 NSaved=   2.
 NSaved= 2 IEnMin= 2 EnMin= -238.387891433730     IErMin= 2 ErrMin= 5.73D-03
 ErrMax= 5.73D-03  0.00D+00 EMaxC= 1.00D-01 BMatC= 1.43D-02 BMatP= 1.42D-01
 IDIUse=3 WtCom= 9.43D-01 WtEn= 5.73D-02
 Coeff-Com:  0.900D-01 0.910D+00
 Coeff-En:   0.202D+00 0.798D+00
 Coeff:      0.964D-01 0.904D+00
 Gap=     0.261 Goal=   None    Shift=    0.000
 Gap=     0.345 Goal=   None    Shift=    0.000
 RMSDP=6.62D-04 MaxDP=1.79D-02 DE=-6.58D-03 OVMax= 6.77D-02

 Cycle   3  Pass 1  IDiag  1:
 E= -238.398640108651     Delta-E=       -0.010748674921 Rises=F Damp=F
 DIIS: error= 5.54D-03 at cycle   3 NSaved=   3.
 NSaved= 3 IEnMin= 3 EnMin= -238.398640108651     IErMin= 3 ErrMin= 5.54D-03
 ErrMax= 5.54D-03  0.00D+00 EMaxC= 1.00D-01 BMatC= 8.51D-03 BMatP= 1.43D-02
 IDIUse=3 WtCom= 9.45D-01 WtEn= 5.54D-02
 Coeff-Com: -0.116D+00 0.395D+00 0.721D+00
 Coeff-En:   0.000D+00 0.000D+00 0.100D+01
 Coeff:     -0.109D+00 0.373D+00 0.736D+00
 Gap=     0.264 Goal=   None    Shift=    0.000
 Gap=     0.340 Goal=   None    Shift=    0.000
 RMSDP=2.94D-04 MaxDP=9.10D-03 DE=-1.07D-02 OVMax= 1.30D-02

 Cycle   4  Pass 1  IDiag  1:
 E= -238.400011628528     Delta-E=       -0.001371519877 Rises=F Damp=F
 DIIS: error= 6.72D-04 at cycle   4 NSaved=   4.
 NSaved= 4 IEnMin= 4 EnMin= -238.400011628528     IErMin= 4 ErrMin= 6.72D-04
 ErrMax= 6.72D-04  0.00D+00 EMaxC= 1.00D-01 BMatC= 1.47D-04 BMatP= 8.51D-03
 IDIUse=3 WtCom= 9.93D-01 WtEn= 6.72D-03
 Coeff-Com: -0.859D-02-0.153D-01 0.112D+00 0.912D+00
 Coeff-En:   0.000D+00 0.000D+00 0.000D+00 0.100D+01
 Coeff:     -0.853D-02-0.152D-01 0.111D+00 0.913D+00
 Gap=     0.263 Goal=   None    Shift=    0.000
 Gap=     0.341 Goal=   None    Shift=    0.000
 RMSDP=5.54D-05 MaxDP=2.48D-03 DE=-1.37D-03 OVMax= 4.74D-03

 Cycle   5  Pass 1  IDiag  1:
 E= -238.400051289917     Delta-E=       -0.000039661389 Rises=F Damp=F
 DIIS: error= 1.75D-04 at cycle   5 NSaved=   5.
 NSaved= 5 IEnMin= 5 EnMin= -238.400051289917     IErMin= 5 ErrMin= 1.75D-04
 ErrMax= 1.75D-04  0.00D+00 EMaxC= 1.00D-01 BMatC= 6.29D-06 BMatP= 1.47D-04
 IDIUse=3 WtCom= 9.98D-01 WtEn= 1.75D-03
 Coeff-Com:  0.224D-02-0.159D-01-0.102D-01 0.151D+00 0.873D+00
 Coeff-En:   0.000D+00 0.000D+00 0.000D+00 0.000D+00 0.100D+01
 Coeff:      0.224D-02-0.158D-01-0.102D-01 0.150D+00 0.873D+00
 Gap=     0.264 Goal=   None    Shift=    0.000
 Gap=     0.341 Goal=   None    Shift=    0.000
 RMSDP=2.15D-05 MaxDP=8.05D-04 DE=-3.97D-05 OVMax= 1.18D-03

 Cycle   6  Pass 1  IDiag  1:
 E= -238.400053524220     Delta-E=       -0.000002234303 Rises=F Damp=F
 DIIS: error= 7.83D-05 at cycle   6 NSaved=   6.
 NSaved= 6 IEnMin= 6 EnMin= -238.400053524220     IErMin= 6 ErrMin= 7.83D-05
 ErrMax= 7.83D-05  0.00D+00 EMaxC= 1.00D-01 BMatC= 1.38D-06 BMatP= 6.29D-06
 IDIUse=1 WtCom= 1.00D+00 WtEn= 0.00D+00
 Coeff-Com:  0.222D-02-0.400D-02-0.198D-01-0.666D-01 0.300D+00 0.789D+00
 Coeff:      0.222D-02-0.400D-02-0.198D-01-0.666D-01 0.300D+00 0.789D+00
 Gap=     0.264 Goal=   None    Shift=    0.000
 Gap=     0.342 Goal=   None    Shift=    0.000
 RMSDP=6.66D-06 MaxDP=3.12D-04 DE=-2.23D-06 OVMax= 3.99D-04

 Cycle   7  Pass 1  IDiag  1:
 E= -238.400053954071     Delta-E=       -0.000000429850 Rises=F Damp=F
 DIIS: error= 1.81D-05 at cycle   7 NSaved=   7.
 NSaved= 7 IEnMin= 7 EnMin= -238.400053954071     IErMin= 7 ErrMin= 1.81D-05
 ErrMax= 1.81D-05  0.00D+00 EMaxC= 1.00D-01 BMatC= 7.13D-08 BMatP= 1.38D-06
 IDIUse=1 WtCom= 1.00D+00 WtEn= 0.00D+00
 Coeff-Com:  0.158D-04 0.112D-02-0.236D-02-0.224D-01-0.310D-01 0.104D+00
 Coeff-Com:  0.951D+00
 Coeff:      0.158D-04 0.112D-02-0.236D-02-0.224D-01-0.310D-01 0.104D+00
 Coeff:      0.951D+00
 Gap=     0.264 Goal=   None    Shift=    0.000
 Gap=     0.342 Goal=   None    Shift=    0.000
 RMSDP=1.97D-06 MaxDP=6.75D-05 DE=-4.30D-07 OVMax= 8.18D-05

 Cycle   8  Pass 1  IDiag  1:
 E= -238.400053981331     Delta-E=       -0.000000027261 Rises=F Damp=F
 DIIS: error= 3.14D-06 at cycle   8 NSaved=   8.
 NSaved= 8 IEnMin= 8 EnMin= -238.400053981331     IErMin= 8 ErrMin= 3.14D-06
 ErrMax= 3.14D-06  0.00D+00 EMaxC= 1.00D-01 BMatC= 3.71D-09 BMatP= 7.13D-08
 IDIUse=1 WtCom= 1.00D+00 WtEn= 0.00D+00
 Coeff-Com: -0.189D-03 0.390D-03 0.167D-02 0.510D-02-0.255D-01-0.662D-01
 Coeff-Com:  0.305D-01 0.105D+01
 Coeff:     -0.189D-03 0.390D-03 0.167D-02 0.510D-02-0.255D-01-0.662D-01
 Coeff:      0.305D-01 0.105D+01
 Gap=     0.264 Goal=   None    Shift=    0.000
 Gap=     0.342 Goal=   None    Shift=    0.000
 RMSDP=4.78D-07 MaxDP=1.45D-05 DE=-2.73D-08 OVMax= 1.81D-05

 Cycle   9  Pass 1  IDiag  1:
 E= -238.400053982889     Delta-E=       -0.000000001557 Rises=F Damp=F
 DIIS: error= 5.19D-07 at cycle   9 NSaved=   9.
 NSaved= 9 IEnMin= 9 EnMin= -238.400053982889     IErMin= 9 ErrMin= 5.19D-07
 ErrMax= 5.19D-07  0.00D+00 EMaxC= 1.00D-01 BMatC= 1.19D-10 BMatP= 3.71D-09
 IDIUse=1 WtCom= 1.00D+00 WtEn= 0.00D+00
 Coeff-Com: -0.876D-05-0.145D-04 0.200D-03 0.953D-03-0.244D-03-0.346D-02
 Coeff-Com: -0.303D-01 0.367D-01 0.996D+00
 Coeff:     -0.876D-05-0.145D-04 0.200D-03 0.953D-03-0.244D-03-0.346D-02
 Coeff:     -0.303D-01 0.367D-01 0.996D+00
 Gap=     0.264 Goal=   None    Shift=    0.000
 Gap=     0.342 Goal=   None    Shift=    0.000
 RMSDP=1.07D-07 MaxDP=2.89D-06 DE=-1.56D-09 OVMax= 5.37D-06

 Cycle  10  Pass 1  IDiag  1:
 E= -238.400053982935     Delta-E=       -0.000000000046 Rises=F Damp=F
 DIIS: error= 1.48D-07 at cycle  10 NSaved=  10.
 NSaved=10 IEnMin=10 EnMin= -238.400053982935     IErMin=10 ErrMin= 1.48D-07
 ErrMax= 1.48D-07  0.00D+00 EMaxC= 1.00D-01 BMatC= 8.09D-12 BMatP= 1.19D-10
 IDIUse=1 WtCom= 1.00D+00 WtEn= 0.00D+00
 Coeff-Com:  0.954D-05-0.235D-04-0.721D-04-0.193D-03 0.135D-02 0.307D-02
 Coeff-Com: -0.524D-02-0.551D-01 0.126D+00 0.931D+00
 Coeff:      0.954D-05-0.235D-04-0.721D-04-0.193D-03 0.135D-02 0.307D-02
 Coeff:     -0.524D-02-0.551D-01 0.126D+00 0.931D+00
 Gap=     0.264 Goal=   None    Shift=    0.000
 Gap=     0.342 Goal=   None    Shift=    0.000
 RMSDP=2.08D-08 MaxDP=4.35D-07 DE=-4.58D-11 OVMax= 8.91D-07

 Cycle  11  Pass 1  IDiag  1:
 E= -238.400053982938     Delta-E=       -0.000000000003 Rises=F Damp=F
 DIIS: error= 3.30D-08 at cycle  11 NSaved=  11.
 NSaved=11 IEnMin=11 EnMin= -238.400053982938     IErMin=11 ErrMin= 3.30D-08
 ErrMax= 3.30D-08  0.00D+00 EMaxC= 1.00D-01 BMatC= 3.33D-13 BMatP= 8.09D-12
 IDIUse=1 WtCom= 1.00D+00 WtEn= 0.00D+00
 Coeff-Com:  0.131D-05-0.800D-06-0.179D-04-0.766D-04 0.131D-03 0.308D-03
 Coeff-Com:  0.167D-02-0.512D-02-0.520D-01 0.280D-01 0.103D+01
 Coeff:      0.131D-05-0.800D-06-0.179D-04-0.766D-04 0.131D-03 0.308D-03
 Coeff:      0.167D-02-0.512D-02-0.520D-01 0.280D-01 0.103D+01
 Gap=     0.264 Goal=   None    Shift=    0.000
 Gap=     0.342 Goal=   None    Shift=    0.000
 RMSDP=6.91D-09 MaxDP=2.28D-07 DE=-3.24D-12 OVMax= 3.46D-07

 SCF Done:  E(UB3LYP) =  -238.400053983     A.U. after   11 cycles
            NFock= 11  Conv=0.69D-08     -V/T= 2.0029
 <Sx>= 0.0000 <Sy>= 0.0000 <Sz>= 0.5000 <S**2>= 0.7522 S= 0.5011
 <L.S>=  0.00000000000    
 KE= 2.377208045024D+02 PE=-7.063622045826D+02 EE= 1.603921139109D+02
 Annihilation of the first spin contaminant:
 S**2 before annihilation     0.7522,   after     0.7500
 Leave Link  502 at Wed Sep  5 16:46:49 2018, MaxMem=   805306368 cpu:               4.1 elap:               0.5
 (Enter /home/g16/l601.exe)
 Copying SCF densities to generalized density rwf, IOpCl= 1 IROHF=0.

 **********************************************************************

            Population analysis using the SCF density.

 **********************************************************************

 Orbital symmetries:
 Alpha Orbitals:
       Occupied  (A') (A") (A') (A') (A") (A') (A") (A') (A') (A")
                 (A") (A') (A')
       Virtual   (A') (A') (A") (A') (A') (A') (A") (A") (A') (A")
                 (A') (A') (A') (A") (A") (A') (A') (A') (A") (A')
                 (A") (A') (A') (A') (A") (A') (A") (A") (A') (A')
                 (A") (A') (A") (A") (A') (A') (A") (A") (A') (A")
                 (A') (A') (A') (A") (A") (A') (A') (A') (A") (A')
                 (A") (A') (A') (A') (A") (A") (A') (A') (A") (A')
                 (A") (A") (A') (A") (A') (A") (A') (A") (A') (A')
                 (A") (A') (A") (A')
 Beta  Orbitals:
       Occupied  (A") (A') (A') (A') (A") (A') (A") (A') (A') (A")
                 (A") (A')
       Virtual   (A') (A') (A') (A") (A') (A') (A") (A') (A") (A')
                 (A") (A') (A') (A') (A") (A") (A') (A') (A") (A')
                 (A') (A") (A') (A') (A') (A") (A') (A") (A") (A')
                 (A') (A") (A') (A") (A") (A') (A') (A") (A") (A')
                 (A") (A') (A') (A') (A") (A") (A') (A') (A') (A")
                 (A') (A") (A') (A') (A') (A") (A') (A") (A') (A")
                 (A') (A") (A") (A') (A") (A') (A") (A') (A") (A')
                 (A') (A") (A') (A") (A')
 The electronic state is 2-A'.
 Alpha  occ. eigenvalues --  -24.72937 -24.72936 -10.35225  -1.29858  -1.24381
 Alpha  occ. eigenvalues --   -0.71765  -0.58702  -0.58547  -0.54174  -0.47074
 Alpha  occ. eigenvalues --   -0.44528  -0.43746  -0.25110
 Alpha virt. eigenvalues --    0.01291   0.03377   0.03493   0.05444   0.14474
 Alpha virt. eigenvalues --    0.17632   0.17674   0.20829   0.23275   0.23692
 Alpha virt. eigenvalues --    0.24872   0.27286   0.30609   0.31734   0.38859
 Alpha virt. eigenvalues --    0.44883   0.49377   0.57106   0.57876   0.70881
 Alpha virt. eigenvalues --    0.72576   0.79598   0.90096   1.05610   1.11085
 Alpha virt. eigenvalues --    1.26427   1.27616   1.29698   1.31830   1.32131
 Alpha virt. eigenvalues --    1.41539   1.62632   1.66190   1.80912   1.87051
 Alpha virt. eigenvalues --    1.91679   1.95200   2.03898   2.10594   2.14277
 Alpha virt. eigenvalues --    2.18685   2.29153   2.46545   2.51748   2.59131
 Alpha virt. eigenvalues --    2.67456   2.78635   2.92466   3.22100   3.23184
 Alpha virt. eigenvalues --    3.23585   3.29741   3.42577   4.06194   4.12103
 Alpha virt. eigenvalues --    6.23524   6.23866   6.25222   6.31130   6.44155
 Alpha virt. eigenvalues --    6.66941   8.99025   9.01912   9.03022   9.07112
 Alpha virt. eigenvalues --    9.12251   9.22925   9.25724   9.45317   9.59363
 Alpha virt. eigenvalues --    9.68397  23.83520  66.73347  66.77543
  Beta  occ. eigenvalues --  -24.72553 -24.72553 -10.33675  -1.28923  -1.23587
  Beta  occ. eigenvalues --   -0.69596  -0.57950  -0.57465  -0.50851  -0.45087
  Beta  occ. eigenvalues --   -0.44134  -0.42881
  Beta virt. eigenvalues --   -0.08725   0.01572   0.03643   0.03708   0.06619
  Beta virt. eigenvalues --    0.15358   0.19228   0.19644   0.20871   0.23641
  Beta virt. eigenvalues --    0.23879   0.24994   0.27495   0.30965   0.31756
  Beta virt. eigenvalues --    0.38883   0.46529   0.52120   0.58703   0.59664
  Beta virt. eigenvalues --    0.73342   0.75108   0.81482   0.91566   1.07179
  Beta virt. eigenvalues --    1.11793   1.26629   1.28212   1.30221   1.32214
  Beta virt. eigenvalues --    1.32730   1.41716   1.63541   1.66631   1.81173
  Beta virt. eigenvalues --    1.87517   1.92766   1.95635   2.04346   2.11836
  Beta virt. eigenvalues --    2.14859   2.20082   2.31001   2.47451   2.52540
  Beta virt. eigenvalues --    2.60302   2.69107   2.81352   2.97534   3.23455
  Beta virt. eigenvalues --    3.28448   3.29398   3.31134   3.47946   4.08274
  Beta virt. eigenvalues --    4.13412   6.24260   6.24827   6.26468   6.31492
  Beta virt. eigenvalues --    6.44696   6.67558   9.00210   9.03308   9.04236
  Beta virt. eigenvalues --    9.08311   9.12814   9.24109   9.26801   9.45629
  Beta virt. eigenvalues --    9.59894   9.68952  23.85268  66.73716  66.77913
     Alpha Molecular Orbital Coefficients:
                           1         2         3         4         5
                           O         O         O         O         O
     Eigenvalues --   -24.72937 -24.72936 -10.35225  -1.29858  -1.24381
   1 1   C  1S          0.00005   0.00000   0.56298  -0.04728   0.00000
   2        2S         -0.00019   0.00000   0.46329  -0.07221   0.00000
   3        2PX        -0.00000   0.00000  -0.00000   0.00123   0.00000
   4        2PY         0.00011   0.00000  -0.00158  -0.04364   0.00000
   5        2PZ         0.00000  -0.00011   0.00000   0.00000   0.06964
   6        3S          0.00036   0.00000   0.01891   0.19124   0.00000
   7        3PX         0.00005   0.00000   0.00169  -0.00155   0.00000
   8        3PY        -0.00137   0.00000  -0.00002  -0.05197   0.00000
   9        3PZ         0.00000   0.00179   0.00000   0.00000   0.08109
  10        4S          0.00818   0.00000  -0.01139  -0.05334   0.00000
  11        4PX        -0.00002   0.00000   0.00012  -0.00404   0.00000
  12        4PY        -0.00344   0.00000   0.00198   0.03077   0.00000
  13        4PZ         0.00000   0.00153   0.00000   0.00000   0.00794
  14        5S         -0.00122   0.00000  -0.00129   0.01434   0.00000
  15        5PX        -0.00005   0.00000  -0.00061   0.00140   0.00000
  16        5PY         0.00068   0.00000  -0.00042  -0.00759   0.00000
  17        5PZ         0.00000  -0.00095   0.00000   0.00000   0.01185
  18        6D 0        0.00007   0.00000   0.00014   0.01058   0.00000
  19        6D+1        0.00000  -0.00001   0.00000   0.00000  -0.00005
  20        6D-1        0.00000  -0.00015   0.00000   0.00000  -0.01901
  21        6D+2        0.00003   0.00000  -0.00004  -0.00642   0.00000
  22        6D-2        0.00001   0.00000   0.00020  -0.00045   0.00000
  23        7D 0        0.00104   0.00000  -0.00019  -0.00241   0.00000
  24        7D+1        0.00000   0.00012   0.00000   0.00000   0.00084
  25        7D-1        0.00000  -0.00102   0.00000   0.00000  -0.01057
  26        7D+2       -0.00097   0.00000  -0.00019   0.00407   0.00000
  27        7D-2        0.00001   0.00000   0.00117  -0.00520   0.00000
  28 2   H  1S          0.00012   0.00000   0.00013   0.01008   0.00000
  29        2S         -0.00026   0.00000  -0.00427   0.02291   0.00000
  30        3S          0.00026   0.00000   0.00235  -0.00574   0.00000
  31        4PX         0.00005   0.00000   0.00157  -0.00322   0.00000
  32        4PY         0.00003   0.00000   0.00162  -0.00443   0.00000
  33        4PZ         0.00000  -0.00018   0.00000   0.00000   0.00185
  34 3   F  1S          0.38724   0.38724  -0.00004  -0.08253  -0.08884
  35        2S          0.33368   0.33370  -0.00012  -0.13342  -0.14389
  36        2PX         0.00000   0.00000  -0.00000  -0.00004  -0.00016
  37        2PY         0.00036   0.00037   0.00007   0.01718   0.01788
  38        2PZ        -0.00053  -0.00054  -0.00014  -0.03038  -0.02085
  39        3S          0.00906   0.00883   0.00112   0.39451   0.42964
  40        3PX        -0.00000   0.00000   0.00002  -0.00003  -0.00013
  41        3PY        -0.00006  -0.00006   0.00015   0.02891   0.03004
  42        3PZ         0.00000   0.00006  -0.00005  -0.04988  -0.03571
  43        4S         -0.00764  -0.00647  -0.00254   0.31872   0.32973
  44        4PX        -0.00000  -0.00005  -0.00002   0.00078   0.00081
  45        4PY        -0.00095  -0.00086  -0.00158   0.02225   0.01838
  46        4PZ         0.00206   0.00121   0.00190  -0.04147  -0.02281
  47        5S          0.00018   0.00296   0.00413   0.00547  -0.03540
  48        5PX         0.00001   0.00001   0.00021   0.00044  -0.00007
  49        5PY        -0.00027   0.00019   0.00167   0.00228  -0.00450
  50        5PZ         0.00048  -0.00070  -0.00209  -0.00487   0.01217
  51        6D 0        0.00008   0.00006   0.00016   0.00115   0.00050
  52        6D+1        0.00001   0.00000   0.00001   0.00004   0.00008
  53        6D-1       -0.00012  -0.00014  -0.00026  -0.00155  -0.00163
  54        6D+2       -0.00002  -0.00001  -0.00009  -0.00027  -0.00034
  55        6D-2       -0.00003  -0.00002   0.00002  -0.00026  -0.00025
  56        7D 0       -0.00036  -0.00022  -0.00070   0.00688   0.00494
  57        7D+1       -0.00000   0.00002  -0.00004   0.00001  -0.00015
  58        7D-1        0.00035   0.00042   0.00112  -0.00925  -0.00832
  59        7D+2        0.00014   0.00012   0.00039  -0.00280  -0.00281
  60        7D-2        0.00001  -0.00002  -0.00010   0.00013  -0.00013
  61 4   F  1S          0.38724  -0.38724  -0.00004  -0.08253   0.08884
  62        2S          0.33368  -0.33370  -0.00012  -0.13342   0.14389
  63        2PX         0.00000  -0.00000  -0.00000  -0.00004   0.00016
  64        2PY         0.00036  -0.00037   0.00007   0.01718  -0.01788
  65        2PZ         0.00053  -0.00054   0.00014   0.03038  -0.02085
  66        3S          0.00906  -0.00883   0.00112   0.39451  -0.42964
  67        3PX        -0.00000  -0.00000   0.00002  -0.00003   0.00013
  68        3PY        -0.00006   0.00006   0.00015   0.02891  -0.03004
  69        3PZ        -0.00000   0.00006   0.00005   0.04988  -0.03571
  70        4S         -0.00764   0.00647  -0.00254   0.31872  -0.32973
  71        4PX        -0.00000   0.00005  -0.00002   0.00078  -0.00081
  72        4PY        -0.00095   0.00086  -0.00158   0.02225  -0.01838
  73        4PZ        -0.00206   0.00121  -0.00190   0.04147  -0.02281
  74        5S          0.00018  -0.00296   0.00413   0.00547   0.03540
  75        5PX         0.00001  -0.00001   0.00021   0.00044   0.00007
  76        5PY        -0.00027  -0.00019   0.00167   0.00228   0.00450
  77        5PZ        -0.00048  -0.00070   0.00209   0.00487   0.01217
  78        6D 0        0.00008  -0.00006   0.00016   0.00115  -0.00050
  79        6D+1       -0.00001   0.00000  -0.00001  -0.00004   0.00008
  80        6D-1        0.00012  -0.00014   0.00026   0.00155  -0.00163
  81        6D+2       -0.00002   0.00001  -0.00009  -0.00027   0.00034
  82        6D-2       -0.00003   0.00002   0.00002  -0.00026   0.00025
  83        7D 0       -0.00036   0.00022  -0.00070   0.00688  -0.00494
  84        7D+1        0.00000   0.00002   0.00004  -0.00001  -0.00015
  85        7D-1       -0.00035   0.00042  -0.00112   0.00925  -0.00832
  86        7D+2        0.00014  -0.00012   0.00039  -0.00280   0.00281
  87        7D-2        0.00001   0.00002  -0.00010   0.00013   0.00013
                           6         7         8         9        10
                           O         O         O         O         O
     Eigenvalues --    -0.71765  -0.58702  -0.58547  -0.54174  -0.47074
   1 1   C  1S         -0.09457   0.00000  -0.00992   0.01773   0.00000
   2        2S         -0.14950   0.00000  -0.01492   0.02843   0.00000
   3        2PX         0.02837   0.00000   0.09966   0.10810   0.00000
   4        2PY         0.00472   0.00000   0.13755  -0.07515   0.00000
   5        2PZ         0.00000   0.15461   0.00000   0.00000   0.00340
   6        3S          0.43512   0.00000   0.03327  -0.08529   0.00000
   7        3PX         0.03283   0.00000   0.14334   0.16591   0.00000
   8        3PY        -0.00171   0.00000   0.19666  -0.11447   0.00000
   9        3PZ         0.00000   0.22060   0.00000   0.00000   0.00567
  10        4S          0.23056   0.00000   0.08427  -0.09443   0.00000
  11        4PX         0.00958   0.00000   0.07438   0.09291   0.00000
  12        4PY         0.01636   0.00000   0.07365  -0.05549   0.00000
  13        4PZ         0.00000   0.08861   0.00000   0.00000   0.01086
  14        5S         -0.00142   0.00000   0.01340   0.00296   0.00000
  15        5PX         0.00348   0.00000   0.01042   0.01230   0.00000
  16        5PY         0.00574   0.00000   0.00542  -0.00441   0.00000
  17        5PZ         0.00000  -0.00038   0.00000   0.00000  -0.00049
  18        6D 0        0.00163   0.00000  -0.00249  -0.00599   0.00000
  19        6D+1        0.00000  -0.00051   0.00000   0.00000   0.01754
  20        6D-1        0.00000  -0.02035   0.00000   0.00000  -0.00078
  21        6D+2       -0.00059   0.00000   0.00938  -0.00709   0.00000
  22        6D-2        0.00164   0.00000   0.00063  -0.00876   0.00000
  23        7D 0       -0.00051   0.00000   0.00876  -0.01353   0.00000
  24        7D+1        0.00000   0.00317   0.00000   0.00000   0.03181
  25        7D-1        0.00000  -0.01973   0.00000   0.00000  -0.00152
  26        7D+2        0.00428   0.00000   0.01372  -0.00772   0.00000
  27        7D-2       -0.00639   0.00000  -0.00150  -0.01400   0.00000
  28 2   H  1S          0.09109   0.00000   0.11888  -0.00855   0.00000
  29        2S          0.12131   0.00000   0.15143  -0.00750   0.00000
  30        3S          0.00278   0.00000   0.01880  -0.01103   0.00000
  31        4PX        -0.01142   0.00000  -0.00876   0.00598   0.00000
  32        4PY        -0.01451   0.00000  -0.00995  -0.00335   0.00000
  33        4PZ         0.00000   0.00551   0.00000   0.00000  -0.00051
  34 3   F  1S          0.03713   0.02178  -0.00931   0.00191   0.00064
  35        2S          0.06083   0.03564  -0.01523   0.00316   0.00108
  36        2PX         0.00909  -0.00373   0.08310   0.15566   0.22977
  37        2PY         0.07483   0.14683   0.03244  -0.07935  -0.00482
  38        2PZ        -0.10248  -0.12848   0.12674  -0.07544  -0.00820
  39        3S         -0.19102  -0.11149   0.04771  -0.01050  -0.00385
  40        3PX         0.01314  -0.00523   0.11976   0.22426   0.33058
  41        3PY         0.10804   0.21352   0.04645  -0.11451  -0.00683
  42        3PZ        -0.14839  -0.18693   0.18390  -0.10881  -0.01174
  43        4S         -0.18753  -0.13617   0.04898  -0.00783  -0.00597
  44        4PX         0.00964  -0.00481   0.09717   0.18426   0.27946
  45        4PY         0.07558   0.15686   0.03982  -0.09304  -0.00629
  46        4PZ        -0.10193  -0.12984   0.14187  -0.08877  -0.00983
  47        5S         -0.03103  -0.05466   0.00895   0.00149  -0.00087
  48        5PX        -0.00062  -0.00007  -0.00027   0.00902   0.03846
  49        5PY        -0.00304   0.00617   0.00066  -0.00377  -0.00136
  50        5PZ        -0.00023  -0.00399   0.01093  -0.01140  -0.00140
  51        6D 0        0.00178   0.00140  -0.00261   0.00156   0.00009
  52        6D+1       -0.00027   0.00002  -0.00122  -0.00174  -0.00136
  53        6D-1       -0.00259  -0.00372   0.00078   0.00028  -0.00008
  54        6D+2       -0.00103  -0.00156  -0.00029   0.00053  -0.00010
  55        6D-2        0.00023   0.00004   0.00075   0.00115   0.00110
  56        7D 0        0.00517   0.00322  -0.01181   0.00793   0.00035
  57        7D+1       -0.00121  -0.00008  -0.00734  -0.01223  -0.01135
  58        7D-1       -0.00944  -0.01282   0.00120   0.00295  -0.00029
  59        7D+2       -0.00355  -0.00715  -0.00250   0.00402   0.00053
  60        7D-2        0.00160   0.00035   0.00515   0.00736   0.00809
  61 4   F  1S          0.03713  -0.02178  -0.00931   0.00191  -0.00064
  62        2S          0.06083  -0.03564  -0.01523   0.00316  -0.00108
  63        2PX         0.00909   0.00373   0.08310   0.15566  -0.22977
  64        2PY         0.07483  -0.14683   0.03244  -0.07935   0.00482
  65        2PZ         0.10248  -0.12848  -0.12674   0.07544  -0.00820
  66        3S         -0.19102   0.11149   0.04771  -0.01050   0.00385
  67        3PX         0.01314   0.00523   0.11976   0.22426  -0.33058
  68        3PY         0.10804  -0.21352   0.04645  -0.11451   0.00683
  69        3PZ         0.14839  -0.18693  -0.18390   0.10881  -0.01174
  70        4S         -0.18753   0.13617   0.04898  -0.00783   0.00597
  71        4PX         0.00964   0.00481   0.09717   0.18426  -0.27946
  72        4PY         0.07558  -0.15686   0.03982  -0.09304   0.00629
  73        4PZ         0.10193  -0.12984  -0.14187   0.08877  -0.00983
  74        5S         -0.03103   0.05466   0.00895   0.00149   0.00087
  75        5PX        -0.00062   0.00007  -0.00027   0.00902  -0.03846
  76        5PY        -0.00304  -0.00617   0.00066  -0.00377   0.00136
  77        5PZ         0.00023  -0.00399  -0.01093   0.01140  -0.00140
  78        6D 0        0.00178  -0.00140  -0.00261   0.00156  -0.00009
  79        6D+1        0.00027   0.00002   0.00122   0.00174  -0.00136
  80        6D-1        0.00259  -0.00372  -0.00078  -0.00028  -0.00008
  81        6D+2       -0.00103   0.00156  -0.00029   0.00053   0.00010
  82        6D-2        0.00023  -0.00004   0.00075   0.00115  -0.00110
  83        7D 0        0.00517  -0.00322  -0.01181   0.00793  -0.00035
  84        7D+1        0.00121  -0.00008   0.00734   0.01223  -0.01135
  85        7D-1        0.00944  -0.01282  -0.00120  -0.00295  -0.00029
  86        7D+2       -0.00355   0.00715  -0.00250   0.00402  -0.00053
  87        7D-2        0.00160  -0.00035   0.00515   0.00736  -0.00809
                          11        12        13        14        15
                           O         O         O         V         V
     Eigenvalues --    -0.44528  -0.43746  -0.25110   0.01291   0.03377
   1 1   C  1S          0.00000   0.02355   0.03596   0.02411   0.03060
   2        2S          0.00000   0.03716   0.05909   0.04105   0.04964
   3        2PX         0.00000  -0.02330   0.24453  -0.03690  -0.04291
   4        2PY         0.00000  -0.10269  -0.08557  -0.08331   0.02702
   5        2PZ        -0.01171   0.00000   0.00000   0.00000   0.00000
   6        3S          0.00000  -0.10419  -0.18651  -0.18045  -0.12833
   7        3PX         0.00000  -0.02274   0.36839  -0.08051  -0.07912
   8        3PY         0.00000  -0.13080  -0.13020  -0.12761   0.04028
   9        3PZ        -0.00689   0.00000   0.00000   0.00000   0.00000
  10        4S          0.00000  -0.16985  -0.33988   0.19346  -0.84916
  11        4PX         0.00000  -0.01074   0.34522  -0.03861  -0.11991
  12        4PY         0.00000  -0.05305  -0.14650  -0.45518   0.23304
  13        4PZ        -0.00060   0.00000   0.00000   0.00000   0.00000
  14        5S          0.00000  -0.01955  -0.06654   1.86524  -0.81918
  15        5PX         0.00000   0.00409   0.04268   0.43842   0.26462
  16        5PY         0.00000   0.00683  -0.02265   0.15113   1.16979
  17        5PZ         0.02118   0.00000   0.00000   0.00000   0.00000
  18        6D 0        0.00000   0.02414   0.00554  -0.00288   0.00653
  19        6D+1        0.00039   0.00000   0.00000   0.00000   0.00000
  20        6D-1        0.01669   0.00000   0.00000   0.00000   0.00000
  21        6D+2        0.00000   0.00020  -0.00376   0.00201  -0.01008
  22        6D-2        0.00000  -0.00927   0.01109   0.00079   0.00252
  23        7D 0        0.00000   0.03196   0.01186   0.02221   0.00372
  24        7D+1        0.00420   0.00000   0.00000   0.00000   0.00000
  25        7D-1        0.02635   0.00000   0.00000   0.00000   0.00000
  26        7D+2        0.00000   0.01068   0.00280  -0.00934  -0.02947
  27        7D-2        0.00000  -0.01133   0.01957  -0.01299  -0.00330
  28 2   H  1S          0.00000  -0.12087   0.07148  -0.01570   0.01686
  29        2S          0.00000  -0.17465   0.13409   0.09493   0.11798
  30        3S          0.00000  -0.07867   0.12484  -0.16063   0.10180
  31        4PX         0.00000   0.01056   0.00974   0.01577  -0.00417
  32        4PY         0.00000   0.01195  -0.01629   0.00880   0.01349
  33        4PZ        -0.00008   0.00000   0.00000   0.00000   0.00000
  34 3   F  1S          0.00118  -0.00204  -0.00515   0.01012  -0.01931
  35        2S          0.00201  -0.00349  -0.00863   0.01711  -0.03251
  36        2PX         0.00849   0.07460  -0.12897  -0.00068   0.00807
  37        2PY         0.15003   0.18347   0.04783   0.01786  -0.00658
  38        2PZ         0.17937   0.01600  -0.01416  -0.00252  -0.04376
  39        3S         -0.00682   0.01203   0.02982  -0.06275   0.11519
  40        3PX         0.01231   0.10720  -0.18403  -0.00456   0.00795
  41        3PY         0.21397   0.26580   0.06938   0.02249  -0.01475
  42        3PZ         0.25931   0.01997  -0.02221  -0.00558  -0.06575
  43        4S         -0.00464   0.01822   0.03931  -0.08928   0.17814
  44        4PX         0.00929   0.09371  -0.17983   0.01274   0.02961
  45        4PY         0.19238   0.22628   0.06580   0.01954   0.03967
  46        4PZ         0.22292   0.01892  -0.01962   0.03974  -0.09369
  47        5S          0.01968   0.01220   0.00131  -0.68160   0.62307
  48        5PX         0.00318   0.01506  -0.08224  -0.07077  -0.04793
  49        5PY         0.02733   0.04057   0.02965  -0.09599  -0.05601
  50        5PZ         0.01163   0.00404   0.00105   0.15963  -0.19989
  51        6D 0       -0.00139  -0.00008   0.00039   0.00076  -0.00048
  52        6D+1       -0.00015  -0.00038  -0.00118   0.00021   0.00042
  53        6D-1        0.00035  -0.00140  -0.00004   0.00008   0.00089
  54        6D+2       -0.00043  -0.00083   0.00017   0.00030   0.00006
  55        6D-2        0.00003   0.00011   0.00092  -0.00019  -0.00031
  56        7D 0       -0.01475  -0.00136   0.00262  -0.00135   0.00139
  57        7D+1        0.00009  -0.00356  -0.00412   0.00289   0.00258
  58        7D-1       -0.00008  -0.00906  -0.00062   0.00624  -0.00111
  59        7D+2       -0.00605  -0.00458   0.00048   0.00478  -0.00293
  60        7D-2        0.00040   0.00196   0.00460  -0.00127  -0.00098
  61 4   F  1S         -0.00118  -0.00204  -0.00515   0.01012  -0.01931
  62        2S         -0.00201  -0.00349  -0.00863   0.01711  -0.03251
  63        2PX        -0.00849   0.07460  -0.12897  -0.00068   0.00807
  64        2PY        -0.15003   0.18347   0.04783   0.01786  -0.00658
  65        2PZ         0.17937  -0.01600   0.01416   0.00252   0.04376
  66        3S          0.00682   0.01203   0.02982  -0.06275   0.11519
  67        3PX        -0.01231   0.10720  -0.18403  -0.00456   0.00795
  68        3PY        -0.21397   0.26580   0.06938   0.02249  -0.01475
  69        3PZ         0.25931  -0.01997   0.02221   0.00558   0.06575
  70        4S          0.00464   0.01822   0.03931  -0.08928   0.17814
  71        4PX        -0.00929   0.09371  -0.17983   0.01274   0.02961
  72        4PY        -0.19238   0.22628   0.06580   0.01954   0.03967
  73        4PZ         0.22292  -0.01892   0.01962  -0.03974   0.09369
  74        5S         -0.01968   0.01220   0.00131  -0.68160   0.62307
  75        5PX        -0.00318   0.01506  -0.08224  -0.07077  -0.04793
  76        5PY        -0.02733   0.04057   0.02965  -0.09599  -0.05601
  77        5PZ         0.01163  -0.00404  -0.00105  -0.15963   0.19989
  78        6D 0        0.00139  -0.00008   0.00039   0.00076  -0.00048
  79        6D+1       -0.00015   0.00038   0.00118  -0.00021  -0.00042
  80        6D-1        0.00035   0.00140   0.00004  -0.00008  -0.00089
  81        6D+2        0.00043  -0.00083   0.00017   0.00030   0.00006
  82        6D-2       -0.00003   0.00011   0.00092  -0.00019  -0.00031
  83        7D 0        0.01475  -0.00136   0.00262  -0.00135   0.00139
  84        7D+1        0.00009   0.00356   0.00412  -0.00289  -0.00258
  85        7D-1       -0.00008   0.00906   0.00062  -0.00624   0.00111
  86        7D+2        0.00605  -0.00458   0.00048   0.00478  -0.00293
  87        7D-2       -0.00040   0.00196   0.00460  -0.00127  -0.00098
                          16        17        18        19        20
                           V         V         V         V         V
     Eigenvalues --     0.03493   0.05444   0.14474   0.17632   0.17674
   1 1   C  1S          0.00000  -0.01145   0.05708  -0.04522   0.00000
   2        2S          0.00000  -0.01935   0.09244  -0.07588   0.00000
   3        2PX         0.00000  -0.09429  -0.10696  -0.05617   0.00000
   4        2PY         0.00000   0.02172   0.01277  -0.22332   0.00000
   5        2PZ         0.07952   0.00000   0.00000   0.00000   0.25593
   6        3S          0.00000   0.07540  -0.25986   0.26563   0.00000
   7        3PX         0.00000  -0.13436  -0.14863  -0.08478   0.00000
   8        3PY         0.00000   0.01481   0.07082  -0.33254   0.00000
   9        3PZ         0.12394   0.00000   0.00000   0.00000   0.41804
  10        4S          0.00000   0.03425  -1.61465   0.53279   0.00000
  11        4PX         0.00000  -0.24169  -0.56914  -0.34905   0.00000
  12        4PY         0.00000   0.09487  -0.26797  -1.27955   0.00000
  13        4PZ         0.48815   0.00000   0.00000   0.00000   1.33512
  14        5S          0.00000  -0.39349  -0.92180  -1.47768   0.00000
  15        5PX         0.00000   1.16328  -0.71364  -0.38098   0.00000
  16        5PY         0.00000  -0.37773  -1.06875   0.05480   0.00000
  17        5PZ         1.28308   0.00000   0.00000   0.00000  -0.95745
  18        6D 0        0.00000   0.00025   0.00540  -0.02362   0.00000
  19        6D+1       -0.00078   0.00000   0.00000   0.00000  -0.00111
  20        6D-1        0.01257   0.00000   0.00000   0.00000   0.03219
  21        6D+2        0.00000   0.00104  -0.00611   0.01406   0.00000
  22        6D-2        0.00000   0.00348   0.01417   0.00732   0.00000
  23        7D 0        0.00000   0.00564   0.02332  -0.04421   0.00000
  24        7D+1        0.01005   0.00000   0.00000   0.00000   0.02376
  25        7D-1        0.01750   0.00000   0.00000   0.00000   0.03927
  26        7D+2        0.00000   0.00947  -0.02760   0.06175   0.00000
  27        7D-2        0.00000   0.01083   0.03957  -0.01416   0.00000
  28 2   H  1S          0.00000   0.00027   0.09236   0.02079   0.00000
  29        2S          0.00000   0.03573   0.11396   0.11138   0.00000
  30        3S          0.00000  -0.00074   2.85851   1.82251   0.00000
  31        4PX         0.00000   0.00599   0.01322   0.02012   0.00000
  32        4PY         0.00000  -0.00098   0.02457  -0.00861   0.00000
  33        4PZ         0.02111   0.00000   0.00000   0.00000   0.03654
  34 3   F  1S          0.01810   0.00010  -0.01362   0.02263   0.02256
  35        2S          0.03059   0.00016  -0.02246   0.03722   0.03690
  36        2PX        -0.00371  -0.01077   0.04677   0.02503  -0.00571
  37        2PY        -0.04962  -0.00113   0.04729  -0.04584  -0.10491
  38        2PZ        -0.00737   0.00927  -0.04734   0.11161   0.07093
  39        3S         -0.11166  -0.00010   0.06747  -0.10912  -0.10210
  40        3PX        -0.00377  -0.02440   0.06221   0.03104  -0.00670
  41        3PY        -0.07311   0.00161   0.06882  -0.06638  -0.14453
  42        3PZ        -0.01262   0.01364  -0.07418   0.16245   0.10875
  43        4S         -0.14283  -0.00041   0.24102  -0.46177  -0.53509
  44        4PX        -0.01592   0.02394   0.10799   0.06344  -0.02391
  45        4PY        -0.09311  -0.01910   0.10197  -0.11442  -0.27036
  46        4PZ         0.02598   0.01333  -0.08650   0.24601   0.17447
  47        5S         -0.73189   0.06397  -0.22526   0.11915  -0.02860
  48        5PX         0.03017  -0.12383  -0.00411  -0.04352   0.04307
  49        5PY        -0.18883   0.07345   0.04314   0.12028  -0.11878
  50        5PZ         0.06161  -0.03876  -0.08936   0.34785   0.21488
  51        6D 0       -0.00003  -0.00015  -0.00137   0.00359  -0.00054
  52        6D+1       -0.00005   0.00097   0.00128   0.00038  -0.00016
  53        6D-1       -0.00080  -0.00031   0.00136  -0.00116  -0.00284
  54        6D+2       -0.00066  -0.00019   0.00029   0.00086  -0.00186
  55        6D-2        0.00012  -0.00055  -0.00032  -0.00007   0.00023
  56        7D 0       -0.00213  -0.00042  -0.00575   0.01546  -0.00822
  57        7D+1        0.00081   0.00593   0.00625   0.00489   0.00174
  58        7D-1        0.00148  -0.00069   0.00176  -0.00432  -0.00648
  59        7D+2       -0.00093  -0.00020  -0.00094   0.00931  -0.00983
  60        7D-2       -0.00031  -0.00335   0.00129   0.00154  -0.00056
  61 4   F  1S         -0.01810   0.00010  -0.01362   0.02263  -0.02256
  62        2S         -0.03059   0.00016  -0.02246   0.03722  -0.03690
  63        2PX         0.00371  -0.01077   0.04677   0.02503   0.00571
  64        2PY         0.04962  -0.00113   0.04729  -0.04584   0.10491
  65        2PZ        -0.00737  -0.00927   0.04734  -0.11161   0.07093
  66        3S          0.11166  -0.00010   0.06747  -0.10912   0.10210
  67        3PX         0.00377  -0.02440   0.06221   0.03104   0.00670
  68        3PY         0.07311   0.00161   0.06882  -0.06638   0.14453
  69        3PZ        -0.01262  -0.01364   0.07418  -0.16245   0.10875
  70        4S          0.14283  -0.00041   0.24102  -0.46177   0.53509
  71        4PX         0.01592   0.02394   0.10799   0.06344   0.02391
  72        4PY         0.09311  -0.01910   0.10197  -0.11442   0.27036
  73        4PZ         0.02598  -0.01333   0.08650  -0.24601   0.17447
  74        5S          0.73189   0.06397  -0.22526   0.11915   0.02860
  75        5PX        -0.03017  -0.12383  -0.00411  -0.04352  -0.04307
  76        5PY         0.18883   0.07345   0.04314   0.12028   0.11878
  77        5PZ         0.06161   0.03876   0.08936  -0.34785   0.21488
  78        6D 0        0.00003  -0.00015  -0.00137   0.00359   0.00054
  79        6D+1       -0.00005  -0.00097  -0.00128  -0.00038  -0.00016
  80        6D-1       -0.00080   0.00031  -0.00136   0.00116  -0.00284
  81        6D+2        0.00066  -0.00019   0.00029   0.00086   0.00186
  82        6D-2       -0.00012  -0.00055  -0.00032  -0.00007  -0.00023
  83        7D 0        0.00213  -0.00042  -0.00575   0.01546   0.00822
  84        7D+1        0.00081  -0.00593  -0.00625  -0.00489   0.00174
  85        7D-1        0.00148   0.00069  -0.00176   0.00432  -0.00648
  86        7D+2        0.00093  -0.00020  -0.00094   0.00931   0.00983
  87        7D-2        0.00031  -0.00335   0.00129   0.00154   0.00056
                          21        22        23        24        25
                           V         V         V         V         V
     Eigenvalues --     0.20829   0.23275   0.23692   0.24872   0.27286
   1 1   C  1S          0.00000   0.00134   0.00000  -0.02704   0.01168
   2        2S          0.00000   0.00629   0.00000  -0.04375   0.02049
   3        2PX         0.00000  -0.01447   0.00000   0.01137  -0.06719
   4        2PY         0.00000   0.02924   0.00000  -0.04794  -0.04484
   5        2PZ         0.05552   0.00000  -0.01651   0.00000   0.00000
   6        3S          0.00000  -0.09528   0.00000   0.14029  -0.05869
   7        3PX         0.00000  -0.02367   0.00000   0.04204  -0.04761
   8        3PY         0.00000   0.11637   0.00000  -0.06639  -0.06015
   9        3PZ        -0.02524   0.00000  -0.03772   0.00000   0.00000
  10        4S          0.00000   1.74272   0.00000   1.31143  -0.47629
  11        4PX         0.00000   0.03439   0.00000   0.23415  -0.79414
  12        4PY         0.00000  -0.34995   0.00000   0.39882  -0.02954
  13        4PZ         0.88804   0.00000   0.00522   0.00000   0.00000
  14        5S          0.00000  -0.25311   0.00000  -0.50191  -1.29647
  15        5PX         0.00000   0.10815   0.00000   0.21402  -1.34515
  16        5PY         0.00000  -0.07921   0.00000   1.01243   0.01389
  17        5PZ        -0.40750   0.00000  -0.04833   0.00000   0.00000
  18        6D 0        0.00000   0.00667   0.00000  -0.00439  -0.00170
  19        6D+1        0.00016   0.00000   0.00439   0.00000   0.00000
  20        6D-1        0.00050   0.00000  -0.00168   0.00000   0.00000
  21        6D+2        0.00000  -0.00626   0.00000  -0.00213  -0.00333
  22        6D-2        0.00000   0.00469   0.00000  -0.00181   0.00160
  23        7D 0        0.00000   0.03149   0.00000  -0.06852  -0.02361
  24        7D+1       -0.01047   0.00000   0.01103   0.00000   0.00000
  25        7D-1       -0.02114   0.00000  -0.01784   0.00000   0.00000
  26        7D+2        0.00000  -0.09217   0.00000   0.01592  -0.00306
  27        7D-2        0.00000   0.04007   0.00000   0.06572   0.00826
  28 2   H  1S          0.00000   0.02077   0.00000  -0.00119   0.01599
  29        2S          0.00000  -0.01542   0.00000  -0.30644   0.09418
  30        3S          0.00000   0.45795   0.00000   0.01783   1.41479
  31        4PX         0.00000  -0.00091   0.00000   0.00794   0.01294
  32        4PY         0.00000   0.01803   0.00000   0.02225   0.01140
  33        4PZ        -0.01334   0.00000   0.01009   0.00000   0.00000
  34 3   F  1S          0.01192  -0.00202  -0.00042   0.00981   0.00483
  35        2S          0.02000  -0.00351  -0.00081   0.01681   0.00797
  36        2PX         0.00768   0.02469  -0.08556   0.01272  -0.07184
  37        2PY         0.05220  -0.00599   0.01219   0.06341   0.01974
  38        2PZ        -0.02080  -0.09182  -0.00647   0.05552  -0.01397
  39        3S         -0.07120   0.01312   0.00514  -0.06726  -0.02542
  40        3PX         0.00724   0.02687  -0.08457   0.01168  -0.06986
  41        3PY         0.05028  -0.00705   0.01471   0.05607   0.01950
  42        3PZ        -0.01193  -0.10492  -0.00759   0.07938  -0.00682
  43        4S         -0.15490   0.00228  -0.02493  -0.01506  -0.09125
  44        4PX         0.03416   0.09046  -0.34598   0.06256  -0.29710
  45        4PY         0.21390  -0.01353   0.03321   0.30945   0.09472
  46        4PZ        -0.12447  -0.29499  -0.01559   0.07768  -0.11568
  47        5S         -0.91288  -0.51139   0.04068   0.06828   0.60492
  48        5PX        -0.09369  -0.26890   1.11812  -0.27732   1.31721
  49        5PY        -1.12966  -0.36619  -0.08123  -1.29594  -0.23670
  50        5PZ         1.17284   1.19962   0.04561   0.08923   0.24193
  51        6D 0        0.00043   0.00088  -0.00003   0.00026   0.00006
  52        6D+1       -0.00003   0.00022   0.00126  -0.00003   0.00154
  53        6D-1       -0.00113  -0.00128   0.00016  -0.00156   0.00018
  54        6D+2       -0.00065  -0.00037   0.00015  -0.00099   0.00009
  55        6D-2       -0.00001   0.00021  -0.00038   0.00058  -0.00132
  56        7D 0        0.00587   0.01042   0.00046   0.00544   0.00730
  57        7D+1       -0.00140   0.00015   0.01176  -0.00356   0.00704
  58        7D-1       -0.01935  -0.00941  -0.00061  -0.01108  -0.00349
  59        7D+2       -0.00580  -0.00701   0.00043  -0.01077  -0.00285
  60        7D-2        0.00035   0.00263  -0.00128   0.00179  -0.00982
  61 4   F  1S         -0.01192  -0.00202   0.00042   0.00981   0.00483
  62        2S         -0.02000  -0.00351   0.00081   0.01681   0.00797
  63        2PX        -0.00768   0.02469   0.08556   0.01272  -0.07184
  64        2PY        -0.05220  -0.00599  -0.01219   0.06341   0.01974
  65        2PZ        -0.02080   0.09182  -0.00647  -0.05552   0.01397
  66        3S          0.07120   0.01312  -0.00514  -0.06726  -0.02542
  67        3PX        -0.00724   0.02687   0.08457   0.01168  -0.06986
  68        3PY        -0.05028  -0.00705  -0.01471   0.05607   0.01950
  69        3PZ        -0.01193   0.10492  -0.00759  -0.07938   0.00682
  70        4S          0.15490   0.00228   0.02493  -0.01506  -0.09125
  71        4PX        -0.03416   0.09046   0.34598   0.06256  -0.29710
  72        4PY        -0.21390  -0.01353  -0.03321   0.30945   0.09472
  73        4PZ        -0.12447   0.29499  -0.01559  -0.07768   0.11568
  74        5S          0.91288  -0.51139  -0.04068   0.06828   0.60492
  75        5PX         0.09369  -0.26890  -1.11812  -0.27732   1.31721
  76        5PY         1.12966  -0.36619   0.08123  -1.29594  -0.23670
  77        5PZ         1.17284  -1.19962   0.04561  -0.08923  -0.24193
  78        6D 0       -0.00043   0.00088   0.00003   0.00026   0.00006
  79        6D+1       -0.00003  -0.00022   0.00126   0.00003  -0.00154
  80        6D-1       -0.00113   0.00128   0.00016   0.00156  -0.00018
  81        6D+2        0.00065  -0.00037  -0.00015  -0.00099   0.00009
  82        6D-2        0.00001   0.00021   0.00038   0.00058  -0.00132
  83        7D 0       -0.00587   0.01042  -0.00046   0.00544   0.00730
  84        7D+1       -0.00140  -0.00015   0.01176   0.00356  -0.00704
  85        7D-1       -0.01935   0.00941  -0.00061   0.01108   0.00349
  86        7D+2        0.00580  -0.00701  -0.00043  -0.01077  -0.00285
  87        7D-2       -0.00035   0.00263   0.00128   0.00179  -0.00982
                          26        27        28        29        30
                           V         V         V         V         V
     Eigenvalues --     0.30609   0.31734   0.38859   0.44883   0.49377
   1 1   C  1S         -0.03526   0.00000   0.00000  -0.02213   0.02249
   2        2S         -0.05713   0.00000   0.00000  -0.03965   0.04092
   3        2PX        -0.02670   0.00000   0.00000   0.10298   0.08204
   4        2PY        -0.03117   0.00000   0.00000  -0.08603  -0.21038
   5        2PZ         0.00000   0.04331  -0.12458   0.00000   0.00000
   6        3S          0.05987   0.00000   0.00000   0.16928  -0.11307
   7        3PX        -0.05345   0.00000   0.00000   0.36625   0.35081
   8        3PY        -0.08215   0.00000   0.00000  -0.16502  -0.62253
   9        3PZ         0.00000   0.10595  -0.20116   0.00000   0.00000
  10        4S          4.29965   0.00000   0.00000   0.17680  -1.24789
  11        4PX        -0.27659   0.00000   0.00000   0.25929  -1.08782
  12        4PY        -1.88879   0.00000   0.00000   1.34410   1.61964
  13        4PZ         0.00000   1.08319  -2.35782   0.00000   0.00000
  14        5S          2.46621   0.00000   0.00000  -0.73299   0.26698
  15        5PX        -0.30446   0.00000   0.00000  -0.19306   0.62023
  16        5PY        -0.68506   0.00000   0.00000  -0.82910  -0.12562
  17        5PZ         0.00000   1.45732  -0.57536   0.00000   0.00000
  18        6D 0       -0.00774   0.00000   0.00000   0.00700  -0.01049
  19        6D+1        0.00000  -0.00017  -0.00002   0.00000   0.00000
  20        6D-1        0.00000   0.00662  -0.00909   0.00000   0.00000
  21        6D+2        0.00682   0.00000   0.00000  -0.00284  -0.01044
  22        6D-2        0.00460   0.00000   0.00000  -0.02847   0.01087
  23        7D 0        0.15785   0.00000   0.00000  -0.19156  -0.20657
  24        7D+1        0.00000   0.00523  -0.00268   0.00000   0.00000
  25        7D-1        0.00000  -0.11472   0.07610   0.00000   0.00000
  26        7D+2       -0.07196   0.00000   0.00000  -0.02607  -0.06310
  27        7D-2       -0.03443   0.00000   0.00000  -0.07416   0.14355
  28 2   H  1S          0.02434   0.00000   0.00000  -0.12954   0.09760
  29        2S          0.26533   0.00000   0.00000  -1.74757   0.77544
  30        3S          0.31865   0.00000   0.00000   1.87192  -1.60177
  31        4PX        -0.00386   0.00000   0.00000   0.03314   0.01609
  32        4PY        -0.01310   0.00000   0.00000   0.04270   0.03521
  33        4PZ         0.00000   0.00296   0.00899   0.00000   0.00000
  34 3   F  1S         -0.01821  -0.00724   0.01444   0.00210  -0.00000
  35        2S         -0.03012  -0.01218   0.02239   0.00471   0.00098
  36        2PX        -0.00849   0.00007   0.00173  -0.03588   0.02592
  37        2PY        -0.02766   0.02935   0.04580  -0.04540   0.00532
  38        2PZ         0.04664   0.07040  -0.03229   0.02249   0.03031
  39        3S          0.09767   0.04613  -0.03327  -0.04689  -0.02825
  40        3PX        -0.00547   0.00046   0.00028  -0.05404   0.03130
  41        3PY        -0.02987   0.02486   0.04445  -0.05811   0.01236
  42        3PZ         0.03138   0.06699  -0.04221   0.03996   0.06357
  43        4S          0.35330   0.01713  -0.74962   0.37426   0.35710
  44        4PX        -0.05282  -0.00194   0.01343  -0.05800   0.12546
  45        4PY        -0.19260   0.09072   0.24053  -0.06202   0.04706
  46        4PZ         0.41359   0.40392  -0.11802  -0.07804  -0.13386
  47        5S         -4.14618  -1.22140   5.34593  -0.22620   0.71901
  48        5PX         0.28777  -0.00171  -0.03429  -0.12402   0.13878
  49        5PY        -0.53271  -1.14075   0.77757  -0.02894   0.19082
  50        5PZ         0.88879  -1.24743  -2.21206   0.01201  -0.34699
  51        6D 0        0.00374  -0.00148  -0.00355   0.00041   0.00206
  52        6D+1        0.00030  -0.00005   0.00001  -0.00205   0.00220
  53        6D-1       -0.00452  -0.00266   0.00389  -0.00168  -0.00074
  54        6D+2       -0.00114  -0.00098   0.00199  -0.00032   0.00040
  55        6D-2       -0.00056   0.00003  -0.00001   0.00192  -0.00116
  56        7D 0       -0.00602  -0.01590  -0.01112   0.00904   0.02499
  57        7D+1        0.00467   0.00019  -0.00087  -0.02023  -0.00082
  58        7D-1       -0.00430   0.00074   0.00416  -0.01298   0.00017
  59        7D+2        0.00954  -0.00439   0.01206  -0.01005  -0.00099
  60        7D-2       -0.00251  -0.00024   0.00055   0.00242   0.00123
  61 4   F  1S         -0.01821   0.00724  -0.01444   0.00210  -0.00000
  62        2S         -0.03012   0.01218  -0.02239   0.00471   0.00098
  63        2PX        -0.00849  -0.00007  -0.00173  -0.03588   0.02592
  64        2PY        -0.02766  -0.02935  -0.04580  -0.04540   0.00532
  65        2PZ        -0.04664   0.07040  -0.03229  -0.02249  -0.03031
  66        3S          0.09767  -0.04613   0.03327  -0.04689  -0.02825
  67        3PX        -0.00547  -0.00046  -0.00028  -0.05404   0.03130
  68        3PY        -0.02987  -0.02486  -0.04445  -0.05811   0.01236
  69        3PZ        -0.03138   0.06699  -0.04221  -0.03996  -0.06357
  70        4S          0.35330  -0.01713   0.74962   0.37426   0.35710
  71        4PX        -0.05282   0.00194  -0.01343  -0.05800   0.12546
  72        4PY        -0.19260  -0.09072  -0.24053  -0.06202   0.04706
  73        4PZ        -0.41359   0.40392  -0.11802   0.07804   0.13386
  74        5S         -4.14618   1.22140  -5.34593  -0.22620   0.71901
  75        5PX         0.28777   0.00171   0.03429  -0.12402   0.13878
  76        5PY        -0.53271   1.14075  -0.77757  -0.02894   0.19082
  77        5PZ        -0.88879  -1.24743  -2.21206  -0.01201   0.34699
  78        6D 0        0.00374   0.00148   0.00355   0.00041   0.00206
  79        6D+1       -0.00030  -0.00005   0.00001   0.00205  -0.00220
  80        6D-1        0.00452  -0.00266   0.00389   0.00168   0.00074
  81        6D+2       -0.00114   0.00098  -0.00199  -0.00032   0.00040
  82        6D-2       -0.00056  -0.00003   0.00001   0.00192  -0.00116
  83        7D 0       -0.00602   0.01590   0.01112   0.00904   0.02499
  84        7D+1       -0.00467   0.00019  -0.00087   0.02023   0.00082
  85        7D-1        0.00430   0.00074   0.00416   0.01298  -0.00017
  86        7D+2        0.00954   0.00439  -0.01206  -0.01005  -0.00099
  87        7D-2       -0.00251   0.00024  -0.00055   0.00242   0.00123
                          31        32        33        34        35
                           V         V         V         V         V
     Eigenvalues --     0.57106   0.57876   0.70881   0.72576   0.79598
   1 1   C  1S          0.01557   0.00000   0.07924   0.00000   0.03574
   2        2S          0.03057   0.00000   0.15482   0.00000   0.07304
   3        2PX         0.19831   0.00000  -0.07809   0.00000  -0.02517
   4        2PY         0.14506   0.00000  -0.02079   0.00000   0.06035
   5        2PZ         0.00000  -0.28912   0.00000   0.01588   0.00000
   6        3S         -0.25571   0.00000  -1.25969   0.00000  -0.63559
   7        3PX         0.66712   0.00000  -0.18094   0.00000  -0.12660
   8        3PY         0.30624   0.00000  -0.18365   0.00000   0.08190
   9        3PZ         0.00000  -0.72915   0.00000   0.06538   0.00000
  10        4S          1.08080   0.00000   3.72218   0.00000   1.94788
  11        4PX        -2.73195   0.00000   1.12370   0.00000  -0.17716
  12        4PY        -2.56269   0.00000   0.90397   0.00000  -1.87210
  13        4PZ         0.00000   5.84087   0.00000  -0.83789   0.00000
  14        5S         -1.00522   0.00000   0.33565   0.00000   0.34520
  15        5PX        -0.35422   0.00000   0.44386   0.00000   0.03175
  16        5PY        -0.17634   0.00000   0.37853   0.00000  -0.08351
  17        5PZ         0.00000  -0.20516   0.00000   0.01856   0.00000
  18        6D 0        0.00090   0.00000   0.00986   0.00000  -0.01625
  19        6D+1        0.00000  -0.00037   0.00000   0.01958   0.00000
  20        6D-1        0.00000   0.02179   0.00000  -0.00354   0.00000
  21        6D+2        0.00899   0.00000   0.00390   0.00000  -0.01477
  22        6D-2       -0.00406   0.00000   0.00268   0.00000  -0.00552
  23        7D 0        0.32819   0.00000  -0.15526   0.00000  -0.42725
  24        7D+1        0.00000   0.12215   0.00000   1.16078   0.00000
  25        7D-1        0.00000  -0.60007   0.00000   0.07111   0.00000
  26        7D+2        0.14138   0.00000   0.71710   0.00000  -0.64611
  27        7D-2       -0.33440   0.00000  -0.18338   0.00000  -0.87271
  28 2   H  1S         -0.06143   0.00000   0.04875   0.00000   0.02690
  29        2S          0.70526   0.00000  -0.17909   0.00000   0.96322
  30        3S          2.94891   0.00000  -1.84500   0.00000   0.13268
  31        4PX        -0.06188   0.00000   0.11417   0.00000  -0.06120
  32        4PY        -0.08936   0.00000   0.03216   0.00000   0.01391
  33        4PZ         0.00000   0.03335   0.00000   0.07876   0.00000
  34 3   F  1S         -0.00286  -0.01214  -0.01016  -0.00019  -0.00191
  35        2S         -0.00624  -0.02259  -0.01848  -0.00009  -0.00396
  36        2PX        -0.00609  -0.00401  -0.00207  -0.05494  -0.01946
  37        2PY         0.01858   0.03295   0.00694   0.00173   0.07351
  38        2PZ        -0.03948  -0.05934  -0.05369   0.00411   0.02853
  39        3S          0.06015   0.14019   0.09534  -0.00615   0.03552
  40        3PX        -0.02470  -0.00530   0.00626  -0.07998  -0.02793
  41        3PY         0.02313   0.07304   0.02819  -0.00195   0.12359
  42        3PZ        -0.07801  -0.09280  -0.10596   0.00929   0.04362
  43        4S         -0.45800  -0.78218   0.13260   0.12268  -0.24987
  44        4PX         0.08135  -0.02984  -0.08492  -0.28546  -0.13009
  45        4PY        -0.06837  -0.36981  -0.08734   0.06353   0.11837
  46        4PZ         0.17851   0.32217  -0.03786  -0.06004   0.24675
  47        5S         -0.99193  -5.00657  -0.67902   0.66713  -1.14241
  48        5PX         0.62336  -0.03641  -0.36827  -0.21217  -0.05690
  49        5PY        -0.26376  -1.49699  -0.55409   0.19490  -0.02245
  50        5PZ         0.65817   1.85095   0.33334  -0.21650   0.49346
  51        6D 0       -0.00104  -0.00185  -0.00325   0.00028   0.00762
  52        6D+1        0.00006  -0.00100  -0.00251  -0.00890  -0.00537
  53        6D-1       -0.00009   0.00060  -0.00208   0.00020   0.00511
  54        6D+2       -0.00055   0.00086  -0.00007   0.00001   0.00376
  55        6D-2       -0.00143   0.00088   0.00136   0.00810   0.00135
  56        7D 0       -0.02441  -0.02109  -0.03161   0.00427   0.00756
  57        7D+1       -0.00379   0.00208  -0.00964   0.00479  -0.02413
  58        7D-1        0.01094   0.05335   0.00247  -0.00606   0.04159
  59        7D+2        0.01795   0.00478   0.02783   0.00192   0.01758
  60        7D-2        0.00230   0.00136  -0.01034   0.03596  -0.02845
  61 4   F  1S         -0.00286   0.01214  -0.01016   0.00019  -0.00191
  62        2S         -0.00624   0.02259  -0.01848   0.00009  -0.00396
  63        2PX        -0.00609   0.00401  -0.00207   0.05494  -0.01946
  64        2PY         0.01858  -0.03295   0.00694  -0.00173   0.07351
  65        2PZ         0.03948  -0.05934   0.05369   0.00411  -0.02853
  66        3S          0.06015  -0.14019   0.09534   0.00615   0.03552
  67        3PX        -0.02470   0.00530   0.00626   0.07998  -0.02793
  68        3PY         0.02313  -0.07304   0.02819   0.00195   0.12359
  69        3PZ         0.07801  -0.09280   0.10596   0.00929  -0.04362
  70        4S         -0.45800   0.78218   0.13260  -0.12268  -0.24987
  71        4PX         0.08135   0.02984  -0.08492   0.28546  -0.13009
  72        4PY        -0.06837   0.36981  -0.08734  -0.06353   0.11837
  73        4PZ        -0.17851   0.32217   0.03786  -0.06004  -0.24675
  74        5S         -0.99193   5.00657  -0.67902  -0.66713  -1.14241
  75        5PX         0.62336   0.03641  -0.36827   0.21217  -0.05690
  76        5PY        -0.26376   1.49699  -0.55409  -0.19490  -0.02245
  77        5PZ        -0.65817   1.85095  -0.33334  -0.21650  -0.49346
  78        6D 0       -0.00104   0.00185  -0.00325  -0.00028   0.00762
  79        6D+1       -0.00006  -0.00100   0.00251  -0.00890   0.00537
  80        6D-1        0.00009   0.00060   0.00208   0.00020  -0.00511
  81        6D+2       -0.00055  -0.00086  -0.00007  -0.00001   0.00376
  82        6D-2       -0.00143  -0.00088   0.00136  -0.00810   0.00135
  83        7D 0       -0.02441   0.02109  -0.03161  -0.00427   0.00756
  84        7D+1        0.00379   0.00208   0.00964   0.00479   0.02413
  85        7D-1       -0.01094   0.05335  -0.00247  -0.00606  -0.04159
  86        7D+2        0.01795  -0.00478   0.02783  -0.00192   0.01758
  87        7D-2        0.00230  -0.00136  -0.01034  -0.03596  -0.02845
                          36        37        38        39        40
                           V         V         V         V         V
     Eigenvalues --     0.90096   1.05610   1.11085   1.26427   1.27616
   1 1   C  1S          0.05408   0.03451   0.00000  -0.00176   0.00000
   2        2S          0.11437   0.08303   0.00000  -0.02081   0.00000
   3        2PX         0.02238  -0.00061   0.00000  -0.00328   0.00000
   4        2PY         0.05173  -0.07044   0.00000   0.00459   0.00000
   5        2PZ         0.00000   0.00000   0.08155   0.00000   0.00977
   6        3S         -1.50636  -1.42546   0.00000   0.08010   0.00000
   7        3PX         0.32162  -0.13015   0.00000  -0.01816   0.00000
   8        3PY         0.40521  -0.54732   0.00000  -0.46495   0.00000
   9        3PZ         0.00000   0.00000   0.88775   0.00000  -0.05569
  10        4S          7.68218   8.70394   0.00000   3.39670   0.00000
  11        4PX         1.06603  -0.50045   0.00000   0.22786   0.00000
  12        4PY        -0.57508  -3.62796   0.00000  -1.34375   0.00000
  13        4PZ         0.00000   0.00000   5.38737   0.00000   0.22774
  14        5S          0.49961   1.14149   0.00000   0.67834   0.00000
  15        5PX        -0.03627   0.04053   0.00000   0.05548   0.00000
  16        5PY        -0.15226  -0.09454   0.00000   0.01370   0.00000
  17        5PZ         0.00000   0.00000   0.12500   0.00000   0.01854
  18        6D 0       -0.01008   0.00334   0.00000   0.04695   0.00000
  19        6D+1        0.00000   0.00000   0.00150   0.00000   0.01437
  20        6D-1        0.00000   0.00000  -0.03437   0.00000   0.00733
  21        6D+2        0.00097  -0.00634   0.00000  -0.03728   0.00000
  22        6D-2        0.01097  -0.00624   0.00000   0.00155   0.00000
  23        7D 0       -0.58132   1.95783   0.00000  -0.06453   0.00000
  24        7D+1        0.00000   0.00000  -0.00790   0.00000  -0.27580
  25        7D-1        0.00000   0.00000  -2.50899   0.00000  -0.06628
  26        7D+2       -0.36921  -0.73915   0.00000  -0.45657   0.00000
  27        7D-2        1.34245  -0.44998   0.00000   0.08732   0.00000
  28 2   H  1S          0.00597  -0.05207   0.00000   0.02486   0.00000
  29        2S         -2.88611   1.38469   0.00000  -0.23892   0.00000
  30        3S          0.11028  -0.29382   0.00000  -0.18769   0.00000
  31        4PX         0.14710  -0.04168   0.00000  -0.07388   0.00000
  32        4PY         0.18099  -0.05905   0.00000   0.03835   0.00000
  33        4PZ         0.00000   0.00000   0.03348   0.00000  -0.05299
  34 3   F  1S          0.00184   0.02049   0.01810   0.01712   0.00064
  35        2S          0.00280   0.03408   0.02846   0.02892   0.00137
  36        2PX         0.00978   0.00212  -0.00204  -0.00402  -0.18450
  37        2PY         0.01819  -0.01580   0.02775  -0.01376  -0.01899
  38        2PZ         0.02044   0.02394  -0.01126  -0.14725   0.00442
  39        3S         -0.00059  -0.07608  -0.00957  -0.09820  -0.01110
  40        3PX         0.01150   0.00725  -0.00672  -0.01238  -0.56178
  41        3PY         0.03409  -0.00179   0.11481  -0.02067  -0.05870
  42        3PZ         0.02300   0.04177  -0.08712  -0.54925   0.01744
  43        4S         -0.19388  -1.86415  -2.37236  -0.52862  -0.03466
  44        4PX         0.16243  -0.05769   0.01759   0.03376   1.28767
  45        4PY         0.02103  -1.02697  -1.16716  -0.09502   0.11314
  46        4PZ         0.29662   1.02501   1.74764   1.83032  -0.01803
  47        5S         -2.55518  -3.51621  -3.67155  -1.61180  -0.17754
  48        5PX        -0.14633   0.09588  -0.01218  -0.07279  -0.68316
  49        5PY        -0.69707  -0.39731  -0.72538  -0.20471  -0.11509
  50        5PZ         0.88690   0.97875   0.63027  -0.27315   0.05776
  51        6D 0        0.00379  -0.00032   0.01349   0.01399  -0.00018
  52        6D+1        0.00635  -0.00171   0.00014   0.00035   0.00385
  53        6D-1        0.00417  -0.01068  -0.01692  -0.00575   0.00085
  54        6D+2        0.00300  -0.00938  -0.00131  -0.00112   0.00048
  55        6D-2       -0.00048   0.00003  -0.00009   0.00001  -0.00332
  56        7D 0       -0.02791  -0.04211  -0.02581   0.00254  -0.00416
  57        7D+1        0.02980  -0.01435  -0.00162   0.00470   0.01053
  58        7D-1        0.03581   0.09757   0.02576  -0.03088   0.00168
  59        7D+2        0.02050  -0.02406   0.05943   0.03750   0.00546
  60        7D-2        0.05199  -0.02362   0.00172   0.00807  -0.03485
  61 4   F  1S          0.00184   0.02049  -0.01810   0.01712  -0.00064
  62        2S          0.00280   0.03408  -0.02846   0.02892  -0.00137
  63        2PX         0.00978   0.00212   0.00204  -0.00402   0.18450
  64        2PY         0.01819  -0.01580  -0.02775  -0.01376   0.01899
  65        2PZ        -0.02044  -0.02394  -0.01126   0.14725   0.00442
  66        3S         -0.00059  -0.07608   0.00957  -0.09820   0.01110
  67        3PX         0.01150   0.00725   0.00672  -0.01238   0.56178
  68        3PY         0.03409  -0.00179  -0.11481  -0.02067   0.05870
  69        3PZ        -0.02300  -0.04177  -0.08712   0.54925   0.01744
  70        4S         -0.19388  -1.86415   2.37236  -0.52862   0.03466
  71        4PX         0.16243  -0.05769  -0.01759   0.03376  -1.28767
  72        4PY         0.02103  -1.02697   1.16716  -0.09502  -0.11314
  73        4PZ        -0.29662  -1.02501   1.74764  -1.83032  -0.01803
  74        5S         -2.55518  -3.51621   3.67155  -1.61180   0.17754
  75        5PX        -0.14633   0.09588   0.01218  -0.07279   0.68316
  76        5PY        -0.69707  -0.39731   0.72538  -0.20471   0.11509
  77        5PZ        -0.88690  -0.97875   0.63027   0.27315   0.05776
  78        6D 0        0.00379  -0.00032  -0.01349   0.01399   0.00018
  79        6D+1       -0.00635   0.00171   0.00014  -0.00035   0.00385
  80        6D-1       -0.00417   0.01068  -0.01692   0.00575   0.00085
  81        6D+2        0.00300  -0.00938   0.00131  -0.00112  -0.00048
  82        6D-2       -0.00048   0.00003   0.00009   0.00001   0.00332
  83        7D 0       -0.02791  -0.04211   0.02581   0.00254   0.00416
  84        7D+1       -0.02980   0.01435  -0.00162  -0.00470   0.01053
  85        7D-1       -0.03581  -0.09757   0.02576   0.03088   0.00168
  86        7D+2        0.02050  -0.02406  -0.05943   0.03750  -0.00546
  87        7D-2        0.05199  -0.02362  -0.00172   0.00807   0.03485
                          41        42        43        44        45
                           V         V         V         V         V
     Eigenvalues --     1.29698   1.31830   1.32131   1.41539   1.62632
   1 1   C  1S          0.00000   0.00231   0.01352   0.00000   0.00061
   2        2S          0.00000   0.00483   0.04261   0.00000   0.00204
   3        2PX         0.00000  -0.04663  -0.00215   0.00000   0.03772
   4        2PY         0.00000  -0.02543  -0.04368   0.00000  -0.08695
   5        2PZ         0.08016   0.00000   0.00000   0.08381   0.00000
   6        3S          0.00000  -0.02700  -0.46359   0.00000  -0.00551
   7        3PX         0.00000  -0.17511  -0.00094   0.00000   0.05920
   8        3PY         0.00000  -0.03295   0.16946   0.00000   0.10356
   9        3PZ        -0.35239   0.00000   0.00000  -0.21111   0.00000
  10        4S          0.00000  -0.07768  -0.36983   0.00000  -0.32258
  11        4PX         0.00000  -0.02889  -0.37663   0.00000   0.40140
  12        4PY         0.00000   0.10568  -0.40623   0.00000   0.16931
  13        4PZ         1.69368   0.00000   0.00000   1.47263   0.00000
  14        5S          0.00000   0.15985  -0.21630   0.00000   0.05584
  15        5PX         0.00000   0.57921  -0.03336   0.00000  -0.03815
  16        5PY         0.00000   0.06476   0.44433   0.00000   0.05454
  17        5PZ         0.11179   0.00000   0.00000  -0.59724   0.00000
  18        6D 0        0.00000   0.00104  -0.03008   0.00000   0.03438
  19        6D+1       -0.00040   0.00000   0.00000  -0.00043   0.00000
  20        6D-1        0.05862   0.00000   0.00000   0.03820   0.00000
  21        6D+2        0.00000   0.00008   0.02132   0.00000  -0.01521
  22        6D-2        0.00000  -0.00933  -0.00837   0.00000  -0.02266
  23        7D 0        0.00000   0.06616  -0.17529   0.00000  -0.06347
  24        7D+1        0.05403   0.00000   0.00000  -0.03024   0.00000
  25        7D-1       -0.94217   0.00000   0.00000  -0.61393   0.00000
  26        7D+2        0.00000   0.07641  -0.14103   0.00000   0.59745
  27        7D-2        0.00000   0.14484  -0.21179   0.00000   0.09908
  28 2   H  1S          0.00000   0.00008  -0.02659   0.00000  -0.06788
  29        2S          0.00000   0.21704   0.60039   0.00000  -0.09402
  30        3S          0.00000  -0.44049   0.16917   0.00000  -0.28250
  31        4PX         0.00000  -0.05787  -0.01386   0.00000  -0.69400
  32        4PY         0.00000   0.04709   0.04390   0.00000   0.81081
  33        4PZ        -0.02074   0.00000   0.00000   0.05831   0.00000
  34 3   F  1S         -0.00234  -0.00018  -0.00109  -0.00632   0.00291
  35        2S         -0.00396  -0.00032  -0.00061  -0.01235   0.00548
[...]
    61. (0.00000) RY*(21) F   3           s( 30.22%)p 0.04(  1.31%)d 2.27( 68.46%)
    62. (0.00000) RY*(22) F   3           s(  0.91%)p 0.78(  0.70%)d99.99( 98.39%)
    63. (0.00058) RY*( 1) F   4           s( 23.46%)p 3.14( 73.54%)d 0.13(  3.00%)
                                            0.0000  0.0014  0.3581 -0.3261 -0.0001
                                            0.0009 -0.3339 -0.0197  0.0126  0.0003
                                           -0.7424 -0.0381  0.0514  0.0035  0.2398
                                            0.1028  0.0098  0.1143 -0.0004  0.0272
                                            0.0427  0.0339  0.0326 -0.0554 -0.0386
                                           -0.0630 -0.0602
    64. (0.00022) RY*( 2) F   4           s( 26.49%)p 1.97( 52.30%)d 0.80( 21.22%)
                                            0.0000  0.0059  0.3860 -0.3404  0.0004
                                           -0.0003 -0.0540  0.0111  0.0021  0.0122
                                            0.1109  0.1834 -0.0024  0.0083 -0.6576
                                            0.0386  0.1995  0.0135  0.0037  0.0117
                                            0.0018 -0.4051  0.1095  0.1300 -0.0205
                                            0.1218  0.0598
    65. (0.00014) RY*( 3) F   4           s(  4.70%)p17.44( 81.98%)d 2.83( 13.31%)
                                           -0.0000 -0.0041 -0.0326  0.2140 -0.0113
                                            0.0065 -0.7311  0.0082 -0.0520 -0.0099
                                            0.0931 -0.1243  0.0359 -0.0031 -0.3117
                                           -0.3897  0.0891 -0.0571  0.0783  0.0189
                                            0.0800  0.3031 -0.0490 -0.0440  0.0106
                                           -0.1391  0.0364
    66. (0.00005) RY*( 4) F   4           s( 12.66%)p 3.68( 46.59%)d 3.22( 40.75%)
    67. (0.00002) RY*( 5) F   4           s( 48.61%)p 0.27( 13.35%)d 0.78( 38.05%)
    68. (0.00000) RY*( 6) F   4           s(  0.89%)p99.99( 96.24%)d 3.21(  2.87%)
    69. (0.00000) RY*( 7) F   4           s( 99.98%)p 0.00(  0.01%)d 0.00(  0.01%)
    70. (0.00000) RY*( 8) F   4           s(  7.74%)p11.42( 88.31%)d 0.51(  3.95%)
    71. (0.00000) RY*( 9) F   4           s(  0.68%)p99.99( 99.01%)d 0.44(  0.30%)
    72. (0.00000) RY*(10) F   4           s( 27.32%)p 1.85( 50.46%)d 0.81( 22.22%)
    73. (0.00000) RY*(11) F   4           s(  4.51%)p19.24( 86.73%)d 1.94(  8.76%)
    74. (0.00000) RY*(12) F   4           s(  1.27%)p77.38( 98.65%)d 0.06(  0.07%)
    75. (0.00000) RY*(13) F   4           s(  5.08%)p 1.21(  6.15%)d17.46( 88.77%)
    76. (0.00000) RY*(14) F   4           s(  1.61%)p 2.51(  4.04%)d58.63( 94.35%)
    77. (0.00000) RY*(15) F   4           s(  1.55%)p 2.90(  4.50%)d60.54( 93.95%)
    78. (0.00000) RY*(16) F   4           s(  0.00%)p 1.00(  0.90%)d99.99( 99.09%)
    79. (0.00000) RY*(17) F   4           s(  1.29%)p73.04( 94.27%)d 3.44(  4.44%)
    80. (0.00000) RY*(18) F   4           s(  0.68%)p 0.61(  0.41%)d99.99( 98.91%)
    81. (0.00000) RY*(19) F   4           s(  0.20%)p 3.77(  0.77%)d99.99( 99.03%)
    82. (0.00000) RY*(20) F   4           s(  0.12%)p 1.14(  0.14%)d99.99( 99.74%)
    83. (0.00000) RY*(21) F   4           s( 30.22%)p 0.04(  1.31%)d 2.27( 68.46%)
    84. (0.00000) RY*(22) F   4           s(  0.91%)p 0.78(  0.70%)d99.99( 98.39%)
    85. (0.01131) BD*( 1) C   1 - H   2  
                ( 43.57%)   0.6601* C   1 s( 41.39%)p 1.41( 58.50%)d 0.00(  0.11%)
                                           -0.0000 -0.6423  0.0364  0.0037 -0.0008
                                           -0.4052 -0.0115  0.0054  0.0014 -0.6485
                                           -0.0064  0.0050  0.0067 -0.0000 -0.0000
                                            0.0000  0.0000 -0.0275 -0.0057 -0.0000
                                            0.0000  0.0000  0.0000 -0.0079 -0.0004
                                            0.0128  0.0086
                ( 56.43%)  -0.7512* H   2 s( 99.88%)p 0.00(  0.12%)
                                           -0.9994 -0.0025  0.0004  0.0277  0.0212
                                           -0.0000
    86. (0.02001) BD*( 1) C   1 - F   3  
                ( 74.07%)   0.8606* C   1 s( 28.55%)p 2.49( 71.09%)d 0.01(  0.36%)
                                            0.0000  0.5289  0.0761  0.0012 -0.0017
                                           -0.1201  0.0056 -0.0036 -0.0001 -0.4432
                                           -0.0489  0.0070 -0.0020  0.7007  0.0805
                                           -0.0075 -0.0005 -0.0019  0.0025  0.0048
                                           -0.0024 -0.0418 -0.0267 -0.0160 -0.0097
                                            0.0213  0.0166
                ( 25.93%)  -0.5093* F   3 s( 26.97%)p 2.70( 72.86%)d 0.01(  0.18%)
                                            0.0000  0.5189 -0.0181 -0.0070 -0.0001
                                           -0.0785 -0.0003  0.0001  0.0003  0.5010
                                           -0.0032 -0.0018 -0.0021 -0.6865  0.0050
                                            0.0041  0.0023 -0.0013  0.0001  0.0017
                                            0.0002 -0.0337 -0.0016 -0.0116 -0.0007
                                            0.0223  0.0009
    87. (0.02001) BD*( 1) C   1 - F   4  
                ( 74.07%)   0.8606* C   1 s( 28.55%)p 2.49( 71.09%)d 0.01(  0.36%)
                                            0.0000  0.5289  0.0761  0.0012 -0.0017
                                           -0.1201  0.0056 -0.0036 -0.0001 -0.4432
                                           -0.0489  0.0070 -0.0020 -0.7007 -0.0805
                                            0.0075  0.0005 -0.0019  0.0025 -0.0048
                                            0.0024  0.0418  0.0267 -0.0160 -0.0097
                                            0.0213  0.0166
                ( 25.93%)  -0.5093* F   4 s( 26.97%)p 2.70( 72.86%)d 0.01(  0.18%)
                                            0.0000  0.5189 -0.0181 -0.0070 -0.0001
                                           -0.0785 -0.0003  0.0001  0.0003  0.5010
                                           -0.0032 -0.0018 -0.0021  0.6865 -0.0050
                                           -0.0041 -0.0023 -0.0013  0.0001 -0.0017
                                           -0.0002  0.0337  0.0016 -0.0116 -0.0007
                                            0.0223  0.0009


 NHO Directionality and "Bond Bending" (deviations from line of nuclear centers)

         [Thresholds for printing:  angular deviation  >  1.0 degree]
                                    hybrid p-character > 25.0%
                                    orbital occupancy  >  0.10e

                                Line of Centers        Hybrid 1              Hybrid 2
                                ---------------  -------------------   ------------------
                NBO               Theta   Phi    Theta   Phi    Dev    Theta   Phi    Dev
 ========================================================================================
     1. BD (   1) C   1 - H   2    90.0   45.9    90.0   57.5  11.6      --     --    --
     2. BD (   1) C   1 - F   3    34.2  270.0    33.0  256.4   7.6    143.5   99.0   5.7
     3. BD (   1) C   1 - F   4   145.8  270.0   147.0  256.4   7.6     36.5   99.0   5.7
     7. LP*(   1) C   1             --     --     90.0  154.9   --       --     --    --
     8. LP (   1) F   3             --     --     35.8  258.0   --       --     --    --
     9. LP (   2) F   3             --     --     57.0   67.5   --       --     --    --
    10. LP (   3) F   3             --     --    102.3  345.7   --       --     --    --
    11. LP (   1) F   4             --     --    144.2  258.0   --       --     --    --
    12. LP (   2) F   4             --     --    123.0   67.5   --       --     --    --
    13. LP (   3) F   4             --     --     77.7  345.7   --       --     --    --


 Second Order Perturbation Theory Analysis of Fock Matrix in NBO Basis

     Threshold for printing:   0.25 kcal/mol
                                                                              E(2)  E(j)-E(i) F(i,j)
         Donor NBO (i)                     Acceptor NBO (j)                 kcal/mol   a.u.    a.u. 
 ===================================================================================================

 within unit  1
   1. BD (   1) C   1 - H   2        / 86. BD*(   1) C   1 - F   3            1.02    0.85    0.037
   1. BD (   1) C   1 - H   2        / 87. BD*(   1) C   1 - F   4            1.02    0.85    0.037
   2. BD (   1) C   1 - F   3        / 87. BD*(   1) C   1 - F   4            0.64    1.28    0.036
   3. BD (   1) C   1 - F   4        / 86. BD*(   1) C   1 - F   3            0.64    1.28    0.036
   4. CR (   1) C   1                /  7. LP*(   1) C   1                    0.69   10.16    0.115
   4. CR (   1) C   1                / 85. BD*(   1) C   1 - H   2            0.27   10.59    0.068
   4. CR (   1) C   1                / 86. BD*(   1) C   1 - F   3            0.42   10.52    0.085
   4. CR (   1) C   1                / 87. BD*(   1) C   1 - F   4            0.42   10.52    0.085
   5. CR (   1) F   3                / 14. RY*(   1) C   1                    0.58   25.46    0.154
   5. CR (   1) F   3                / 15. RY*(   2) C   1                    0.38   25.54    0.124
   6. CR (   1) F   4                / 14. RY*(   1) C   1                    0.58   25.46    0.154
   6. CR (   1) F   4                / 15. RY*(   2) C   1                    0.38   25.54    0.124
   7. LP*(   1) C   1                / 26. RY*(  13) C   1                    0.36    2.31    0.092
   7. LP*(   1) C   1                / 85. BD*(   1) C   1 - H   2            0.79    0.43    0.057
   7. LP*(   1) C   1                / 86. BD*(   1) C   1 - F   3            0.43    0.37    0.038
   7. LP*(   1) C   1                / 87. BD*(   1) C   1 - F   4            0.43    0.37    0.038
   8. LP (   1) F   3                /  7. LP*(   1) C   1                    0.28    0.97    0.023
   8. LP (   1) F   3                / 14. RY*(   1) C   1                    1.65    2.04    0.073
   8. LP (   1) F   3                / 15. RY*(   2) C   1                    1.18    2.12    0.063
   8. LP (   1) F   3                / 17. RY*(   4) C   1                    0.29    3.00    0.037
   8. LP (   1) F   3                / 18. RY*(   5) C   1                    0.38    3.58    0.047
   9. LP (   2) F   3                / 15. RY*(   2) C   1                    0.39    1.50    0.031
   9. LP (   2) F   3                / 17. RY*(   4) C   1                    0.39    2.37    0.039
   9. LP (   2) F   3                / 85. BD*(   1) C   1 - H   2            2.42    0.77    0.055
   9. LP (   2) F   3                / 87. BD*(   1) C   1 - F   4            6.35    0.71    0.085
  10. LP (   3) F   3                /  7. LP*(   1) C   1                   26.31    0.34    0.124
  10. LP (   3) F   3                / 16. RY*(   3) C   1                    0.56    1.96    0.044
  10. LP (   3) F   3                / 85. BD*(   1) C   1 - H   2            0.36    0.77    0.022
  11. LP (   1) F   4                /  7. LP*(   1) C   1                    0.28    0.97    0.023
  11. LP (   1) F   4                / 14. RY*(   1) C   1                    1.65    2.04    0.073
  11. LP (   1) F   4                / 15. RY*(   2) C   1                    1.18    2.12    0.063
  11. LP (   1) F   4                / 17. RY*(   4) C   1                    0.29    3.00    0.037
  11. LP (   1) F   4                / 18. RY*(   5) C   1                    0.38    3.58    0.047
  12. LP (   2) F   4                / 15. RY*(   2) C   1                    0.39    1.50    0.031
  12. LP (   2) F   4                / 17. RY*(   4) C   1                    0.39    2.37    0.039
  12. LP (   2) F   4                / 85. BD*(   1) C   1 - H   2            2.42    0.77    0.055
  12. LP (   2) F   4                / 86. BD*(   1) C   1 - F   3            6.35    0.71    0.085
  13. LP (   3) F   4                /  7. LP*(   1) C   1                   26.31    0.34    0.124
  13. LP (   3) F   4                / 16. RY*(   3) C   1                    0.56    1.96    0.044
  13. LP (   3) F   4                / 85. BD*(   1) C   1 - H   2            0.36    0.77    0.022


 Natural Bond Orbitals (Summary):

                                                            Principal Delocalizations
           NBO                        Occupancy    Energy   (geminal,vicinal,remote)
 ====================================================================================
 Molecular unit  1  (CHF2)
     1. BD (   1) C   1 - H   2          0.99499    -0.59162  86(g),87(g)
     2. BD (   1) C   1 - F   3          0.99845    -1.02338  87(g),7(g)
     3. BD (   1) C   1 - F   4          0.99845    -1.02338  86(g),7(g)
     4. CR (   1) C   1                  0.99967   -10.26747  7(g),86(g),87(g),85(g)
     5. CR (   1) F   3                  0.99996   -24.49187  14(v),15(v)
     6. CR (   1) F   4                  0.99996   -24.49187  14(v),15(v)
     7. LP*(   1) C   1                  0.15454    -0.10904  85(g),86(g),87(g),26(g)
     8. LP (   1) F   3                  0.99711    -1.07955  14(v),15(v),18(v),7(v),17(v)
     9. LP (   2) F   3                  0.97547    -0.45331  87(v),85(v),15(v),17(v)
    10. LP (   3) F   3                  0.92197    -0.44894  7(v),16(v),85(v)
    11. LP (   1) F   4                  0.99711    -1.07955  14(v),15(v),18(v),7(v),17(v)
    12. LP (   2) F   4                  0.97547    -0.45331  86(v),85(v),15(v),17(v)
    13. LP (   3) F   4                  0.92197    -0.44894  7(v),16(v),85(v)
    14. RY*(   1) C   1                  0.00410     0.96474   
    15. RY*(   2) C   1                  0.00366     1.04453   
    16. RY*(   3) C   1                  0.00142     1.51179   
    17. RY*(   4) C   1                  0.00114     1.91831   
    18. RY*(   5) C   1                  0.00058     2.50365   
    19. RY*(   6) C   1                  0.00000     0.43394   
    20. RY*(   7) C   1                  0.00000     0.63115   
    21. RY*(   8) C   1                  0.00000     2.05164   
    22. RY*(   9) C   1                  0.00000     0.57689   
    23. RY*(  10) C   1                  0.00000    20.57954   
    24. RY*(  11) C   1                  0.00000     1.12100   
    25. RY*(  12) C   1                  0.00000     1.47880   
    26. RY*(  13) C   1                  0.00000     2.20288   
    27. RY*(  14) C   1                  0.00000     2.41324   
    28. RY*(  15) C   1                  0.00000     2.97590   
    29. RY*(  16) C   1                  0.00000     2.91387   
    30. RY*(  17) C   1                  0.00000     0.67415   
    31. RY*(  18) C   1                  0.00000     2.62574   
    32. RY*(  19) C   1                  0.00000     2.15826   
    33. RY*(  20) C   1                  0.00000     2.47817   
    34. RY*(  21) C   1                  0.00000     2.37156   
    35. RY*(  22) C   1                  0.00000     2.51015   
    36. RY*(   1) H   2                  0.00034     0.82259   
    37. RY*(   2) H   2                  0.00012     1.78118   
    38. RY*(   3) H   2                  0.00010     2.16061   
    39. RY*(   4) H   2                  0.00003     2.07062   
    40. RY*(   5) H   2                  0.00000     1.95376   
    41. RY*(   1) F   3                  0.00058     0.91861   
    42. RY*(   2) F   3                  0.00022     1.70124   
    43. RY*(   3) F   3                  0.00014     1.23710   
    44. RY*(   4) F   3                  0.00005     1.88620   
    45. RY*(   5) F   3                  0.00002     1.41466   
    46. RY*(   6) F   3                  0.00000     5.30058   
    47. RY*(   7) F   3                  0.00000    66.44814   
    48. RY*(   8) F   3                  0.00000     2.13328   
    49. RY*(   9) F   3                  0.00000     5.21980   
    50. RY*(  10) F   3                  0.00000     1.42236   
    51. RY*(  11) F   3                  0.00000     2.15814   
    52. RY*(  12) F   3                  0.00000     5.20484   
    53. RY*(  13) F   3                  0.00000     2.08734   
    54. RY*(  14) F   3                  0.00000     8.31061   
    55. RY*(  15) F   3                  0.00000     2.37141   
    56. RY*(  16) F   3                  0.00000     9.02097   
    57. RY*(  17) F   3                  0.00000     1.88649   
    58. RY*(  18) F   3                  0.00000     9.10542   
    59. RY*(  19) F   3                  0.00000     2.06139   
    60. RY*(  20) F   3                  0.00000     9.03314   
    61. RY*(  21) F   3                  0.00000     2.56340   
    62. RY*(  22) F   3                  0.00000     9.13467   
    63. RY*(   1) F   4                  0.00058     0.91861   
    64. RY*(   2) F   4                  0.00022     1.70124   
    65. RY*(   3) F   4                  0.00014     1.23710   
    66. RY*(   4) F   4                  0.00005     1.88620   
    67. RY*(   5) F   4                  0.00002     1.41466   
    68. RY*(   6) F   4                  0.00000     5.30058   
    69. RY*(   7) F   4                  0.00000    66.44814   
    70. RY*(   8) F   4                  0.00000     2.13328   
    71. RY*(   9) F   4                  0.00000     5.21980   
    72. RY*(  10) F   4                  0.00000     1.42236   
    73. RY*(  11) F   4                  0.00000     2.15814   
    74. RY*(  12) F   4                  0.00000     5.20484   
    75. RY*(  13) F   4                  0.00000     2.08734   
    76. RY*(  14) F   4                  0.00000     8.31061   
    77. RY*(  15) F   4                  0.00000     2.37141   
    78. RY*(  16) F   4                  0.00000     9.02097   
    79. RY*(  17) F   4                  0.00000     1.88649   
    80. RY*(  18) F   4                  0.00000     9.10542   
    81. RY*(  19) F   4                  0.00000     2.06139   
    82. RY*(  20) F   4                  0.00000     9.03314   
    83. RY*(  21) F   4                  0.00000     2.56340   
    84. RY*(  22) F   4                  0.00000     9.13467   
    85. BD*(   1) C   1 - H   2          0.01131     0.31825   
    86. BD*(   1) C   1 - F   3          0.02001     0.25628   
    87. BD*(   1) C   1 - F   4          0.02001     0.25628   
       -------------------------------
              Total Lewis   11.78061  ( 98.1717%)
        Valence non-Lewis    0.20586  (  1.7155%)
        Rydberg non-Lewis    0.01353  (  0.1128%)
       -------------------------------
            Total unit  1   12.00000  (100.0000%)
           Charge unit  1    0.50000
 Leave Link  607 at Wed Sep  5 16:46:54 2018, MaxMem=   805306368 cpu:               6.4 elap:               0.8
 (Enter /home/g16/l9999.exe)
 1\1\GINC-PC13\Stability\UB3LYP\6-311+G(2d,p)\C1H1F2(2)\MASKER\05-Sep-2
 018\0\\#p b3lyp/6-311+g(2d,p) pop=(full,nboread) stable=opt g09def\\CF
 2-c1-1sp 1\\0,2\C,0,-0.030426,0.507861,0.\H,0,0.730212,1.292915,0.\F,0
 ,-0.030426,-0.241115,1.10362\F,0,-0.030426,-0.241115,-1.10362\\Version
 =ES64L-G16RevA.03\State=2-A'\HF=-238.400054\S2=0.752203\S2-1=0.\S2A=0.
 750003\RMSD=6.915e-09\Dipole=0.2977524,0.4818465,0.\Quadrupole=0.42217
 61,0.7988863,-1.2210624,0.7716549,0.,0.\PG=CS [SG(C1H1),X(F2)]\\@


 MY GROUP MEETINGS AREN'T VERY STRUCTURED.
     -- PROF. M. S. GORDON, OCT. 5, 1984
 Job cpu time:       0 days  0 hours  0 minutes 39.7 seconds.
 Elapsed time:       0 days  0 hours  0 minutes  5.0 seconds.
 File lengths (MBytes):  RWF=     67 Int=      0 D2E=      0 Chk=      2 Scr=      1
 Normal termination of Gaussian 16 at Wed Sep  5 16:46:54 2018.
