 Entering Gaussian System, Link 0=g16
 Input=CFM-c1-1sp.gjf
 Output=CFM-c1-1sp.log
 Initial command:
 /home/g16/l1.exe "/home/masker/scratch/Gau-28440.inp" -scrdir="/home/masker/scratch/"
 Entering Link 1 = /home/g16/l1.exe PID=     28441.
  
 Copyright (c) 1988,1990,1992,1993,1995,1998,2003,2009,2016,
            Gaussian, Inc.  All Rights Reserved.
  
 This is part of the Gaussian(R) 16 program.  It is based on
 the Gaussian(R) 09 system (copyright 2009, Gaussian, Inc.),
 the Gaussian(R) 03 system (copyright 2003, Gaussian, Inc.),
 the Gaussian(R) 98 system (copyright 1998, Gaussian, Inc.),
 the Gaussian(R) 94 system (copyright 1995, Gaussian, Inc.),
 the Gaussian 92(TM) system (copyright 1992, Gaussian, Inc.),
 the Gaussian 90(TM) system (copyright 1990, Gaussian, Inc.),
 the Gaussian 88(TM) system (copyright 1988, Gaussian, Inc.),
 the Gaussian 86(TM) system (copyright 1986, Carnegie Mellon
 University), and the Gaussian 82(TM) system (copyright 1983,
 Carnegie Mellon University). Gaussian is a federally registered
 trademark of Gaussian, Inc.
  
 This software contains proprietary and confidential information,
 including trade secrets, belonging to Gaussian, Inc.
  
 This software is provided under written license and may be
 used, copied, transmitted, or stored only in accord with that
 written license.
  
 The following legend is applicable only to US Government
 contracts under FAR:
  
                    RESTRICTED RIGHTS LEGEND
  
 Use, reproduction and disclosure by the US Government is
 subject to restrictions as set forth in subparagraphs (a)
 and (c) of the Commercial Computer Software - Restricted
 Rights clause in FAR 52.227-19.
  
 Gaussian, Inc.
 340 Quinnipiac St., Bldg. 40, Wallingford CT 06492
  
  
 ---------------------------------------------------------------
 Warning -- This program may not be used in any manner that
 competes with the business of Gaussian, Inc. or will provide
 assistance to any competitor of Gaussian, Inc.  The licensee
 of this program is prohibited from giving any competitor of
 Gaussian, Inc. access to this program.  By using this program,
 the user acknowledges that Gaussian, Inc. is engaged in the
 business of creating and licensing software in the field of
 computational chemistry and represents and warrants to the
 licensee that it is not a competitor of Gaussian, Inc. and that
 it will not use this program in any manner prohibited above.
 ---------------------------------------------------------------
  

 Cite this work as:
 Gaussian 16, Revision A.03,
 M. J. Frisch, G. W. Trucks, H. B. Schlegel, G. E. Scuseria, 
 M. A. Robb, J. R. Cheeseman, G. Scalmani, V. Barone, 
 G. A. Petersson, H. Nakatsuji, X. Li, M. Caricato, A. V. Marenich, 
 J. Bloino, B. G. Janesko, R. Gomperts, B. Mennucci, H. P. Hratchian, 
 J. V. Ortiz, A. F. Izmaylov, J. L. Sonnenberg, D. Williams-Young, 
 F. Ding, F. Lipparini, F. Egidi, J. Goings, B. Peng, A. Petrone, 
 T. Henderson, D. Ranasinghe, V. G. Zakrzewski, J. Gao, N. Rega, 
 G. Zheng, W. Liang, M. Hada, M. Ehara, K. Toyota, R. Fukuda, 
 J. Hasegawa, M. Ishida, T. Nakajima, Y. Honda, O. Kitao, H. Nakai, 
 T. Vreven, K. Throssell, J. A. Montgomery, Jr., J. E. Peralta, 
 F. Ogliaro, M. J. Bearpark, J. J. Heyd, E. N. Brothers, K. N. Kudin, 
 V. N. Staroverov, T. A. Keith, R. Kobayashi, J. Normand, 
 K. Raghavachari, A. P. Rendell, J. C. Burant, S. S. Iyengar, 
 J. Tomasi, M. Cossi, J. M. Millam, M. Klene, C. Adamo, R. Cammi, 
 J. W. Ochterski, R. L. Martin, K. Morokuma, O. Farkas, 
 J. B. Foresman, and D. J. Fox, Gaussian, Inc., Wallingford CT, 2016.
 
 ******************************************
 Gaussian 16:  ES64L-G16RevA.03 25-Dec-2016
                 5-Sep-2018 
 ******************************************
 %nprocshared=8
 Will use up to    8 processors via shared memory.
 %mem=6GB
 %chk=CFM-c1-1sp.chk
 -----------------------------------------------------------
 #p b3lyp/6-311+g(2d,p) pop=(full,nboread) stable=opt g09def
 -----------------------------------------------------------
 1/38=1,158=3,167=1,172=1/1;
 2/12=2,17=6,18=5,40=1/2;
 3/5=4,6=6,7=112,11=2,25=1,27=10,30=1,74=-5,75=-4,158=3/1,2,3;
 4/60=-1/1;
 5/5=2,38=5,87=10/2;
 6/7=3,28=1,40=2,87=10/1,7;
 8/6=1,10=90,11=11,87=10/1;
 9/8=-3,42=1,46=1,87=10/14;
 5/5=2,8=3,17=40,38=5,87=10/8(-2);
 6/7=3,28=1,40=2,87=10/1,7;
 99/5=1,9=1/99;
 Using 2006 physical constants.
 Leave Link    1 at Wed Sep  5 16:47:23 2018, MaxMem=   805306368 cpu:               0.4 elap:               0.0
 (Enter /home/g16/l101.exe)
 ------------
 CFM-c1-1sp 1
 ------------
 Symbolic Z-matrix:
 Charge =  0 Multiplicity = 2
 C                    -0.30408   0.05104   0. 
 F                     0.05734   0.7384   -1.09451 
 F                     0.05734   0.7384    1.09451 
 C                     0.05734  -1.39011   0. 
 H                    -0.35011  -1.8717   -0.88813 
 H                     1.1486   -1.51324   0. 
 H                    -0.35011  -1.8717    0.88813 
 
 ITRead=  0  0  0  0  0  0  0
 MicOpt= -1 -1 -1 -1 -1 -1 -1
 NAtoms=      7 NQM=        7 NQMF=       0 NMMI=      0 NMMIF=      0
                NMic=       0 NMicF=      0.
                    Isotopes and Nuclear Properties:
 (Nuclear quadrupole moments (NQMom) in fm**2, nuclear magnetic moments (NMagM)
  in nuclear magnetons)

  Atom         1           2           3           4           5           6           7
 IAtWgt=          12          19          19          12           1           1           1
 AtmWgt=  12.0000000  18.9984032  18.9984032  12.0000000   1.0078250   1.0078250   1.0078250
 NucSpn=           0           1           1           0           1           1           1
 AtZEff=  -0.0000000  -0.0000000  -0.0000000  -0.0000000  -0.0000000  -0.0000000  -0.0000000
 NQMom=    0.0000000   0.0000000   0.0000000   0.0000000   0.0000000   0.0000000   0.0000000
 NMagM=    0.0000000   2.6288670   2.6288670   0.0000000   2.7928460   2.7928460   2.7928460
 AtZNuc=   6.0000000   9.0000000   9.0000000   6.0000000   1.0000000   1.0000000   1.0000000
 Leave Link  101 at Wed Sep  5 16:47:23 2018, MaxMem=   805306368 cpu:               0.3 elap:               0.0
 (Enter /home/g16/l202.exe)
                          Input orientation:                          
 ---------------------------------------------------------------------
 Center     Atomic      Atomic             Coordinates (Angstroms)
 Number     Number       Type             X           Y           Z
 ---------------------------------------------------------------------
      1          6           0       -0.304083    0.051038    0.000000
      2          9           0        0.057338    0.738395   -1.094508
      3          9           0        0.057338    0.738395    1.094508
      4          6           0        0.057338   -1.390114    0.000000
      5          1           0       -0.350110   -1.871703   -0.888133
      6          1           0        1.148601   -1.513238    0.000000
      7          1           0       -0.350110   -1.871703    0.888133
 ---------------------------------------------------------------------
                    Distance matrix (angstroms):
                    1          2          3          4          5
     1  C    0.000000
     2  F    1.342026   0.000000
     3  F    1.342026   2.189016   0.000000
     4  C    1.485781   2.393428   2.393428   0.000000
     5  H    2.118450   2.649758   3.302952   1.089368   0.000000
     6  H    2.134772   2.731054   2.731054   1.098187   1.778598
     7  H    2.118450   3.302952   2.649758   1.089368   1.776266
                    6          7
     6  H    0.000000
     7  H    1.778598   0.000000
 Stoichiometry    C2H3F2(2)
 Framework group  CS[SG(C2H),X(H2F2)]
 Deg. of freedom     9
 Full point group                 CS      NOp   2
 Largest Abelian subgroup         CS      NOp   2
 Largest concise Abelian subgroup CS      NOp   2
                         Standard orientation:                         
 ---------------------------------------------------------------------
 Center     Atomic      Atomic             Coordinates (Angstroms)
 Number     Number       Type             X           Y           Z
 ---------------------------------------------------------------------
      1          6           0        0.304083    0.051038    0.000000
      2          9           0       -0.057338    0.738395    1.094508
      3          9           0       -0.057338    0.738395   -1.094508
      4          6           0       -0.057338   -1.390114   -0.000000
      5          1           0        0.350110   -1.871703    0.888133
      6          1           0       -1.148601   -1.513238   -0.000000
      7          1           0        0.350110   -1.871703   -0.888133
 ---------------------------------------------------------------------
 Rotational constants (GHZ):          10.1162864           9.1113506           5.0676659
 Leave Link  202 at Wed Sep  5 16:47:23 2018, MaxMem=   805306368 cpu:               0.0 elap:               0.0
 (Enter /home/g16/l301.exe)
 Standard basis: 6-311+G(2d,p) (5D, 7F)
 Ernie: Thresh=  0.10000D-02 Tol=  0.10000D-05 Strict=F.
 There are    82 symmetry adapted cartesian basis functions of A'  symmetry.
 There are    52 symmetry adapted cartesian basis functions of A"  symmetry.
 There are    76 symmetry adapted basis functions of A'  symmetry.
 There are    50 symmetry adapted basis functions of A"  symmetry.
   126 basis functions,   192 primitive gaussians,   134 cartesian basis functions
    17 alpha electrons       16 beta electrons
       nuclear repulsion energy       122.9314894363 Hartrees.
 IExCor=  402 DFT=T Ex+Corr=B3LYP ExCW=0 ScaHFX=  0.200000
 ScaDFX=  0.800000  0.720000  1.000000  0.810000 ScalE2=  1.000000  1.000000
 IRadAn=      4 IRanWt=     -1 IRanGd=            0 ICorTp=0 IEmpDi=  4
 NAtoms=    7 NActive=    7 NUniq=    5 SFac= 1.96D+00 NAtFMM=   60 NAOKFM=F Big=F
 Integral buffers will be    131072 words long.
 Raffenetti 2 integral format.
 Two-electron integral symmetry is turned on.
 Leave Link  301 at Wed Sep  5 16:47:23 2018, MaxMem=   805306368 cpu:               0.1 elap:               0.0
 (Enter /home/g16/l302.exe)
 NPDir=0 NMtPBC=     1 NCelOv=     1 NCel=       1 NClECP=     1 NCelD=      1
         NCelK=      1 NCelE2=     1 NClLst=     1 CellRange=     0.0.
 One-electron integrals computed using PRISM.
 One-electron integral symmetry used in STVInt
 NBasis=   126 RedAO= T EigKep=  1.81D-04  NBF=    76    50
 NBsUse=   126 1.00D-06 EigRej= -1.00D+00 NBFU=    76    50
 Precomputing XC quadrature grid using
 IXCGrd= 4 IRadAn=           4 IRanWt=          -1 IRanGd=           0 AccXCQ= 1.00D-10.
 Generated NRdTot=       0 NPtTot=           0 NUsed=           0 NTot=          32
 NSgBfM=   134   134   134   134   134 MxSgAt=     7 MxSgA2=     7.
 Leave Link  302 at Wed Sep  5 16:47:23 2018, MaxMem=   805306368 cpu:               0.7 elap:               0.1
 (Enter /home/g16/l303.exe)
 DipDrv:  MaxL=1.
 Leave Link  303 at Wed Sep  5 16:47:23 2018, MaxMem=   805306368 cpu:               0.1 elap:               0.0
 (Enter /home/g16/l401.exe)
 ExpMin= 4.38D-02 ExpMax= 1.14D+04 ExpMxC= 1.72D+03 IAcc=2 IRadAn=         4 AccDes= 0.00D+00
 Harris functional with IExCor=  402 and IRadAn=      -1 diagonalized for initial guess.
 HarFok:  IExCor=  402 AccDes= 0.00D+00 IRadAn=        -1 IDoV= 1 UseB2=F ITyADJ=14
 ICtDFT=  3500011 ScaDFX=  1.000000  1.000000  1.000000  1.000000
 FoFCou: FMM=F IPFlag=           0 FMFlag=      100000 FMFlg1=           0
         NFxFlg=           0 DoJE=T BraDBF=F KetDBF=T FulRan=T
         wScrn=  0.000000 ICntrl=       500 IOpCl=  0 I1Cent=   200000004 NGrid=           0
         NMat0=    1 NMatS0=      1 NMatT0=    0 NMatD0=    1 NMtDS0=    0 NMtDT0=    0
 Petite list used in FoFCou.
 Harris En= -277.714185081549    
 JPrj=0 DoOrth=F DoCkMO=F.
 Initial guess orbital symmetries:
 Alpha Orbitals:
       Occupied  (A') (A") (A') (A') (A') (A") (A') (A') (A") (A')
                 (A') (A") (A') (A") (A') (A") (A')
       Virtual   (A') (A') (A") (A') (A") (A') (A') (A") (A') (A')
                 (A") (A') (A') (A') (A") (A') (A") (A') (A') (A")
                 (A') (A") (A') (A') (A") (A') (A") (A') (A') (A")
                 (A') (A') (A") (A') (A') (A") (A') (A') (A") (A')
                 (A') (A") (A') (A') (A") (A") (A') (A") (A') (A")
                 (A') (A") (A') (A") (A") (A') (A') (A") (A') (A")
                 (A') (A") (A') (A') (A') (A") (A") (A") (A') (A')
                 (A") (A') (A') (A') (A') (A") (A') (A') (A") (A')
                 (A') (A") (A") (A') (A') (A') (A") (A") (A') (A')
                 (A") (A') (A") (A') (A") (A") (A') (A") (A') (A")
                 (A') (A") (A') (A') (A") (A') (A') (A") (A')
 Beta  Orbitals:
       Occupied  (A') (A") (A') (A') (A') (A") (A') (A') (A") (A')
                 (A') (A") (A') (A") (A') (A")
       Virtual   (A') (A') (A') (A") (A') (A") (A') (A') (A") (A')
                 (A') (A") (A') (A') (A') (A") (A') (A") (A') (A')
                 (A") (A') (A") (A') (A') (A") (A') (A") (A') (A')
                 (A") (A') (A') (A") (A') (A') (A") (A') (A') (A")
                 (A') (A') (A") (A') (A') (A") (A") (A') (A") (A')
                 (A") (A') (A") (A') (A") (A") (A') (A') (A") (A')
                 (A") (A') (A") (A') (A') (A') (A") (A") (A") (A')
                 (A') (A") (A') (A') (A') (A') (A") (A') (A') (A")
                 (A') (A') (A") (A") (A') (A') (A') (A") (A") (A')
                 (A') (A") (A') (A") (A') (A") (A") (A') (A") (A')
                 (A") (A') (A") (A') (A') (A") (A') (A') (A") (A')
 The electronic state of the initial guess is 2-A'.
 Initial guess <Sx>= 0.0000 <Sy>= 0.0000 <Sz>= 0.5000 <S**2>= 0.7500 S= 0.5000
 Leave Link  401 at Wed Sep  5 16:47:23 2018, MaxMem=   805306368 cpu:               0.8 elap:               0.1
 (Enter /home/g16/l502.exe)
 Keep R1 and R2 ints in memory in symmetry-blocked form, NReq=48163009.
 FoFCou: FMM=F IPFlag=           0 FMFlag=           0 FMFlg1=           0
         NFxFlg=           0 DoJE=F BraDBF=F KetDBF=F FulRan=T
         wScrn=  0.000000 ICntrl=       600 IOpCl=  0 I1Cent=           0 NGrid=           0
         NMat0=    1 NMatS0=   8001 NMatT0=    0 NMatD0=    1 NMtDS0=    0 NMtDT0=    0
 Petite list used in FoFCou.
 UHF open shell SCF:
 Using DIIS extrapolation, IDIIS=  1040.
 NGot=   805306368 LenX=   773154075 LenY=   773135678
 Requested convergence on RMS density matrix=1.00D-08 within 128 cycles.
 Requested convergence on MAX density matrix=1.00D-06.
 Requested convergence on             energy=1.00D-06.
 No special actions if energy rises.

 Cycle   1  Pass 1  IDiag  1:
 E= -277.652766735348    
 DIIS: error= 2.64D-02 at cycle   1 NSaved=   1.
 NSaved= 1 IEnMin= 1 EnMin= -277.652766735348     IErMin= 1 ErrMin= 2.64D-02
 ErrMax= 2.64D-02  0.00D+00 EMaxC= 1.00D-01 BMatC= 4.45D-01 BMatP= 4.45D-01
 IDIUse=3 WtCom= 7.36D-01 WtEn= 2.64D-01
 Coeff-Com:  0.100D+01
 Coeff-En:   0.100D+01
 Coeff:      0.100D+01
 Gap=     0.261 Goal=   None    Shift=    0.000
 Gap=     0.285 Goal=   None    Shift=    0.000
 GapD=    0.261 DampG=1.000 DampE=0.500 DampFc=0.5000 IDamp=-1.
 Damping current iteration by 5.00D-01
 RMSDP=3.16D-03 MaxDP=1.37D-01              OVMax= 1.52D-01

 Cycle   2  Pass 1  IDiag  1:
 E= -277.691613063237     Delta-E=       -0.038846327889 Rises=F Damp=T
 DIIS: error= 4.70D-03 at cycle   2 NSaved=   2.
 NSaved= 2 IEnMin= 2 EnMin= -277.691613063237     IErMin= 2 ErrMin= 4.70D-03
 ErrMax= 4.70D-03  0.00D+00 EMaxC= 1.00D-01 BMatC= 1.82D-02 BMatP= 4.45D-01
 IDIUse=3 WtCom= 9.53D-01 WtEn= 4.70D-02
 Coeff-Com:  0.586D-01 0.941D+00
 Coeff-En:   0.124D+00 0.876D+00
 Coeff:      0.617D-01 0.938D+00
 Gap=     0.236 Goal=   None    Shift=    0.000
 Gap=     0.337 Goal=   None    Shift=    0.000
 RMSDP=7.10D-04 MaxDP=3.31D-02 DE=-3.88D-02 OVMax= 8.09D-02

 Cycle   3  Pass 1  IDiag  1:
 E= -277.738913063284     Delta-E=       -0.047300000047 Rises=F Damp=F
 DIIS: error= 3.91D-03 at cycle   3 NSaved=   3.
 NSaved= 3 IEnMin= 3 EnMin= -277.738913063284     IErMin= 3 ErrMin= 3.91D-03
 ErrMax= 3.91D-03  0.00D+00 EMaxC= 1.00D-01 BMatC= 7.47D-03 BMatP= 1.82D-02
 IDIUse=3 WtCom= 9.61D-01 WtEn= 3.91D-02
 Coeff-Com: -0.238D-01 0.336D+00 0.688D+00
 Coeff-En:   0.000D+00 0.000D+00 0.100D+01
 Coeff:     -0.228D-01 0.323D+00 0.700D+00
 Gap=     0.237 Goal=   None    Shift=    0.000
 Gap=     0.330 Goal=   None    Shift=    0.000
 RMSDP=3.37D-04 MaxDP=1.12D-02 DE=-4.73D-02 OVMax= 1.48D-02

 Cycle   4  Pass 1  IDiag  1:
 E= -277.739562289966     Delta-E=       -0.000649226682 Rises=F Damp=F
 DIIS: error= 2.73D-03 at cycle   4 NSaved=   4.
 NSaved= 4 IEnMin= 4 EnMin= -277.739562289966     IErMin= 4 ErrMin= 2.73D-03
 ErrMax= 2.73D-03  0.00D+00 EMaxC= 1.00D-01 BMatC= 3.46D-03 BMatP= 7.47D-03
 IDIUse=3 WtCom= 9.73D-01 WtEn= 2.73D-02
 Coeff-Com: -0.222D-01 0.571D-01 0.431D+00 0.534D+00
 Coeff-En:   0.000D+00 0.000D+00 0.329D+00 0.671D+00
 Coeff:     -0.216D-01 0.555D-01 0.429D+00 0.537D+00
 Gap=     0.237 Goal=   None    Shift=    0.000
 Gap=     0.331 Goal=   None    Shift=    0.000
 RMSDP=1.35D-04 MaxDP=4.21D-03 DE=-6.49D-04 OVMax= 8.13D-03

 Cycle   5  Pass 1  IDiag  1:
 E= -277.740183892421     Delta-E=       -0.000621602455 Rises=F Damp=F
 DIIS: error= 2.75D-04 at cycle   5 NSaved=   5.
 NSaved= 5 IEnMin= 5 EnMin= -277.740183892421     IErMin= 5 ErrMin= 2.75D-04
 ErrMax= 2.75D-04  0.00D+00 EMaxC= 1.00D-01 BMatC= 4.45D-05 BMatP= 3.46D-03
 IDIUse=3 WtCom= 9.97D-01 WtEn= 2.75D-03
 Coeff-Com: -0.444D-02-0.710D-02 0.758D-01 0.149D+00 0.787D+00
 Coeff-En:   0.000D+00 0.000D+00 0.000D+00 0.000D+00 0.100D+01
 Coeff:     -0.442D-02-0.708D-02 0.756D-01 0.148D+00 0.788D+00
 Gap=     0.236 Goal=   None    Shift=    0.000
 Gap=     0.332 Goal=   None    Shift=    0.000
 RMSDP=2.60D-05 MaxDP=1.25D-03 DE=-6.22D-04 OVMax= 1.89D-03

 Cycle   6  Pass 1  IDiag  1:
 E= -277.740194362817     Delta-E=       -0.000010470396 Rises=F Damp=F
 DIIS: error= 9.96D-05 at cycle   6 NSaved=   6.
 NSaved= 6 IEnMin= 6 EnMin= -277.740194362817     IErMin= 6 ErrMin= 9.96D-05
 ErrMax= 9.96D-05  0.00D+00 EMaxC= 1.00D-01 BMatC= 4.38D-06 BMatP= 4.45D-05
 IDIUse=1 WtCom= 1.00D+00 WtEn= 0.00D+00
 Coeff-Com:  0.647D-03-0.619D-02-0.185D-01-0.252D-02 0.204D+00 0.823D+00
 Coeff:      0.647D-03-0.619D-02-0.185D-01-0.252D-02 0.204D+00 0.823D+00
 Gap=     0.236 Goal=   None    Shift=    0.000
 Gap=     0.332 Goal=   None    Shift=    0.000
 RMSDP=2.47D-05 MaxDP=1.20D-03 DE=-1.05D-05 OVMax= 9.02D-04

 Cycle   7  Pass 1  IDiag  1:
 E= -277.740195785259     Delta-E=       -0.000001422443 Rises=F Damp=F
 DIIS: error= 3.78D-05 at cycle   7 NSaved=   7.
 NSaved= 7 IEnMin= 7 EnMin= -277.740195785259     IErMin= 7 ErrMin= 3.78D-05
 ErrMax= 3.78D-05  0.00D+00 EMaxC= 1.00D-01 BMatC= 6.67D-07 BMatP= 4.38D-06
 IDIUse=1 WtCom= 1.00D+00 WtEn= 0.00D+00
 Coeff-Com:  0.794D-03-0.105D-02-0.172D-01-0.211D-01-0.381D-01 0.282D+00
 Coeff-Com:  0.795D+00
 Coeff:      0.794D-03-0.105D-02-0.172D-01-0.211D-01-0.381D-01 0.282D+00
 Coeff:      0.795D+00
 Gap=     0.236 Goal=   None    Shift=    0.000
 Gap=     0.332 Goal=   None    Shift=    0.000
 RMSDP=3.65D-06 MaxDP=1.78D-04 DE=-1.42D-06 OVMax= 2.46D-04

 Cycle   8  Pass 1  IDiag  1:
 E= -277.740195975682     Delta-E=       -0.000000190423 Rises=F Damp=F
 DIIS: error= 7.10D-06 at cycle   8 NSaved=   8.
 NSaved= 8 IEnMin= 8 EnMin= -277.740195975682     IErMin= 8 ErrMin= 7.10D-06
 ErrMax= 7.10D-06  0.00D+00 EMaxC= 1.00D-01 BMatC= 2.95D-08 BMatP= 6.67D-07
 IDIUse=1 WtCom= 1.00D+00 WtEn= 0.00D+00
 Coeff-Com:  0.715D-04 0.344D-03-0.183D-02-0.343D-02-0.209D-01 0.408D-03
 Coeff-Com:  0.129D+00 0.896D+00
 Coeff:      0.715D-04 0.344D-03-0.183D-02-0.343D-02-0.209D-01 0.408D-03
 Coeff:      0.129D+00 0.896D+00
 Gap=     0.236 Goal=   None    Shift=    0.000
 Gap=     0.332 Goal=   None    Shift=    0.000
 RMSDP=1.47D-06 MaxDP=5.88D-05 DE=-1.90D-07 OVMax= 5.52D-05

 Cycle   9  Pass 1  IDiag  1:
 E= -277.740195986428     Delta-E=       -0.000000010746 Rises=F Damp=F
 DIIS: error= 2.54D-06 at cycle   9 NSaved=   9.
 NSaved= 9 IEnMin= 9 EnMin= -277.740195986428     IErMin= 9 ErrMin= 2.54D-06
 ErrMax= 2.54D-06  0.00D+00 EMaxC= 1.00D-01 BMatC= 3.43D-09 BMatP= 2.95D-08
 IDIUse=1 WtCom= 1.00D+00 WtEn= 0.00D+00
 Coeff-Com: -0.857D-04 0.165D-03 0.182D-02 0.203D-02 0.247D-02-0.338D-01
 Coeff-Com: -0.870D-01 0.135D+00 0.980D+00
 Coeff:     -0.857D-04 0.165D-03 0.182D-02 0.203D-02 0.247D-02-0.338D-01
 Coeff:     -0.870D-01 0.135D+00 0.980D+00
 Gap=     0.236 Goal=   None    Shift=    0.000
 Gap=     0.332 Goal=   None    Shift=    0.000
 RMSDP=3.35D-07 MaxDP=1.18D-05 DE=-1.07D-08 OVMax= 1.17D-05

 Cycle  10  Pass 1  IDiag  1:
 E= -277.740195987714     Delta-E=       -0.000000001286 Rises=F Damp=F
 DIIS: error= 4.26D-07 at cycle  10 NSaved=  10.
 NSaved=10 IEnMin=10 EnMin= -277.740195987714     IErMin=10 ErrMin= 4.26D-07
 ErrMax= 4.26D-07  0.00D+00 EMaxC= 1.00D-01 BMatC= 9.25D-11 BMatP= 3.43D-09
 IDIUse=1 WtCom= 1.00D+00 WtEn= 0.00D+00
 Coeff-Com:  0.342D-05-0.226D-04 0.252D-04 0.758D-04 0.711D-03 0.323D-03
 Coeff-Com:  0.316D-02-0.434D-01-0.380D-01 0.108D+01
 Coeff:      0.342D-05-0.226D-04 0.252D-04 0.758D-04 0.711D-03 0.323D-03
 Coeff:      0.316D-02-0.434D-01-0.380D-01 0.108D+01
 Gap=     0.236 Goal=   None    Shift=    0.000
 Gap=     0.332 Goal=   None    Shift=    0.000
 RMSDP=5.97D-08 MaxDP=1.51D-06 DE=-1.29D-09 OVMax= 3.14D-06

 Cycle  11  Pass 1  IDiag  1:
 E= -277.740195987756     Delta-E=       -0.000000000042 Rises=F Damp=F
 DIIS: error= 9.55D-08 at cycle  11 NSaved=  11.
 NSaved=11 IEnMin=11 EnMin= -277.740195987756     IErMin=11 ErrMin= 9.55D-08
 ErrMax= 9.55D-08  0.00D+00 EMaxC= 1.00D-01 BMatC= 4.16D-12 BMatP= 9.25D-11
 IDIUse=1 WtCom= 1.00D+00 WtEn= 0.00D+00
 Coeff-Com:  0.379D-05-0.786D-05-0.781D-04-0.794D-04-0.879D-04 0.145D-02
 Coeff-Com:  0.350D-02-0.640D-02-0.447D-01 0.450D-01 0.100D+01
 Coeff:      0.379D-05-0.786D-05-0.781D-04-0.794D-04-0.879D-04 0.145D-02
 Coeff:      0.350D-02-0.640D-02-0.447D-01 0.450D-01 0.100D+01
 Gap=     0.236 Goal=   None    Shift=    0.000
 Gap=     0.332 Goal=   None    Shift=    0.000
 RMSDP=1.51D-08 MaxDP=4.94D-07 DE=-4.19D-11 OVMax= 6.35D-07

 Cycle  12  Pass 1  IDiag  1:
 E= -277.740195987758     Delta-E=       -0.000000000002 Rises=F Damp=F
 DIIS: error= 3.44D-08 at cycle  12 NSaved=  12.
 NSaved=12 IEnMin=12 EnMin= -277.740195987758     IErMin=12 ErrMin= 3.44D-08
 ErrMax= 3.44D-08  0.00D+00 EMaxC= 1.00D-01 BMatC= 3.65D-13 BMatP= 4.16D-12
 IDIUse=1 WtCom= 1.00D+00 WtEn= 0.00D+00
 Coeff-Com: -0.848D-07 0.105D-05-0.672D-05-0.124D-04-0.599D-04 0.117D-03
 Coeff-Com: -0.138D-03 0.278D-02-0.104D-03-0.780D-01 0.562D-01 0.102D+01
 Coeff:     -0.848D-07 0.105D-05-0.672D-05-0.124D-04-0.599D-04 0.117D-03
 Coeff:     -0.138D-03 0.278D-02-0.104D-03-0.780D-01 0.562D-01 0.102D+01
 Gap=     0.236 Goal=   None    Shift=    0.000
 Gap=     0.332 Goal=   None    Shift=    0.000
 RMSDP=4.03D-09 MaxDP=1.18D-07 DE=-1.88D-12 OVMax= 2.05D-07

 SCF Done:  E(UB3LYP) =  -277.740195988     A.U. after   12 cycles
            NFock= 12  Conv=0.40D-08     -V/T= 2.0031
 <Sx>= 0.0000 <Sy>= 0.0000 <Sz>= 0.5000 <S**2>= 0.7523 S= 0.5011
 <L.S>=  0.00000000000    
 KE= 2.768764738385D+02 PE=-9.035347043158D+02 EE= 2.259865450532D+02
 Annihilation of the first spin contaminant:
 S**2 before annihilation     0.7523,   after     0.7500
 Leave Link  502 at Wed Sep  5 16:47:24 2018, MaxMem=   805306368 cpu:              12.0 elap:               1.6
 (Enter /home/g16/l601.exe)
 Copying SCF densities to generalized density rwf, IOpCl= 1 IROHF=0.

 **********************************************************************

            Population analysis using the SCF density.

 **********************************************************************

 Orbital symmetries:
 Alpha Orbitals:
       Occupied  (A') (A") (A') (A') (A') (A") (A') (A') (A") (A')
                 (A') (A") (A") (A') (A") (A') (A')
       Virtual   (A') (A') (A') (A") (A") (A') (A') (A") (A') (A')
                 (A') (A") (A') (A") (A') (A') (A") (A') (A') (A")
                 (A') (A") (A') (A") (A') (A') (A") (A') (A') (A")
                 (A') (A') (A") (A') (A') (A") (A') (A') (A') (A")
                 (A') (A") (A') (A') (A") (A") (A') (A') (A") (A")
                 (A') (A") (A') (A") (A") (A') (A') (A") (A') (A")
                 (A') (A") (A') (A') (A') (A") (A") (A") (A') (A")
                 (A') (A') (A') (A') (A') (A') (A") (A") (A') (A')
                 (A') (A") (A") (A') (A') (A") (A') (A") (A') (A')
                 (A") (A') (A") (A') (A") (A") (A') (A") (A') (A")
                 (A') (A") (A') (A') (A") (A') (A') (A") (A')
 Beta  Orbitals:
       Occupied  (A") (A') (A') (A') (A') (A") (A') (A') (A") (A')
                 (A') (A") (A") (A') (A") (A')
       Virtual   (A') (A') (A') (A') (A") (A") (A') (A') (A") (A')
                 (A') (A') (A') (A") (A") (A') (A') (A") (A') (A')
                 (A") (A') (A") (A') (A") (A') (A') (A") (A') (A')
                 (A") (A') (A') (A") (A') (A') (A") (A') (A') (A")
                 (A') (A') (A") (A') (A') (A") (A") (A') (A') (A")
                 (A") (A') (A") (A') (A") (A") (A') (A') (A") (A')
                 (A") (A') (A") (A') (A') (A') (A") (A") (A") (A')
                 (A") (A') (A') (A') (A') (A') (A') (A") (A") (A')
                 (A') (A') (A") (A") (A') (A') (A') (A") (A") (A')
                 (A') (A") (A') (A") (A') (A") (A") (A') (A") (A')
                 (A") (A') (A") (A') (A') (A") (A') (A') (A") (A')
 The electronic state is 2-A'.
 Alpha  occ. eigenvalues --  -24.71435 -24.71435 -10.34315 -10.19908  -1.28481
 Alpha  occ. eigenvalues --   -1.22754  -0.79141  -0.65945  -0.57793  -0.53889
 Alpha  occ. eigenvalues --   -0.53208  -0.46193  -0.44220  -0.44134  -0.41557
 Alpha  occ. eigenvalues --   -0.41292  -0.23208
 Alpha virt. eigenvalues --    0.00429   0.03591   0.04500   0.04593   0.06752
 Alpha virt. eigenvalues --    0.07303   0.08470   0.12455   0.12815   0.13917
 Alpha virt. eigenvalues --    0.19447   0.19665   0.20804   0.23725   0.24626
 Alpha virt. eigenvalues --    0.25001   0.28802   0.30709   0.32851   0.33107
 Alpha virt. eigenvalues --    0.34476   0.35516   0.42285   0.46136   0.47200
 Alpha virt. eigenvalues --    0.53086   0.54469   0.54640   0.56073   0.62581
 Alpha virt. eigenvalues --    0.66050   0.67656   0.73439   0.80218   0.81348
 Alpha virt. eigenvalues --    0.94422   0.95842   1.06475   1.13474   1.13950
 Alpha virt. eigenvalues --    1.17923   1.18706   1.24644   1.31123   1.33226
 Alpha virt. eigenvalues --    1.35835   1.37144   1.41616   1.42458   1.45885
 Alpha virt. eigenvalues --    1.71388   1.73300   1.80627   1.85411   1.98665
 Alpha virt. eigenvalues --    2.00032   2.02029   2.04298   2.08396   2.10794
 Alpha virt. eigenvalues --    2.14249   2.21351   2.27914   2.30984   2.36005
 Alpha virt. eigenvalues --    2.38679   2.51424   2.53078   2.56221   2.67507
 Alpha virt. eigenvalues --    2.68165   2.73727   2.80839   2.96696   3.13069
 Alpha virt. eigenvalues --    3.20655   3.22771   3.30613   3.31007   3.32426
 Alpha virt. eigenvalues --    3.39949   3.43669   3.46346   3.52385   3.65104
 Alpha virt. eigenvalues --    4.17172   4.17685   4.21817   4.44615   6.27772
 Alpha virt. eigenvalues --    6.27841   6.33159   6.34564   6.48573   6.72061
 Alpha virt. eigenvalues --    9.01276   9.05069   9.05887   9.08023   9.15073
 Alpha virt. eigenvalues --    9.27967   9.31295   9.50501   9.61136   9.70945
 Alpha virt. eigenvalues --   23.79499  23.95599  66.77257  66.80863
  Beta  occ. eigenvalues --  -24.71094 -24.71094 -10.32767 -10.19860  -1.27607
  Beta  occ. eigenvalues --   -1.22034  -0.78044  -0.64682  -0.57094  -0.52512
  Beta  occ. eigenvalues --   -0.50650  -0.45095  -0.43338  -0.43281  -0.41345
  Beta  occ. eigenvalues --   -0.40641
  Beta virt. eigenvalues --   -0.07446   0.00796   0.03896   0.04536   0.04569
  Beta virt. eigenvalues --    0.07031   0.07461   0.08968   0.12560   0.13555
  Beta virt. eigenvalues --    0.14339   0.20747   0.20984   0.21265   0.23770
  Beta virt. eigenvalues --    0.25235   0.25971   0.28825   0.30943   0.32983
  Beta virt. eigenvalues --    0.33155   0.34759   0.35512   0.42599   0.46232
  Beta virt. eigenvalues --    0.48082   0.54579   0.55059   0.55485   0.58896
  Beta virt. eigenvalues --    0.63094   0.66746   0.68881   0.74784   0.80673
  Beta virt. eigenvalues --    0.82261   0.94753   0.96660   1.07810   1.14712
  Beta virt. eigenvalues --    1.15460   1.18947   1.19234   1.25165   1.31333
  Beta virt. eigenvalues --    1.33924   1.36203   1.37843   1.41889   1.42799
  Beta virt. eigenvalues --    1.46117   1.72028   1.73639   1.80888   1.85670
  Beta virt. eigenvalues --    1.99009   2.00410   2.02774   2.04756   2.09161
  Beta virt. eigenvalues --    2.10942   2.14678   2.21440   2.28795   2.31530
  Beta virt. eigenvalues --    2.38212   2.39598   2.52331   2.53584   2.57222
  Beta virt. eigenvalues --    2.68005   2.69266   2.74849   2.82838   2.98946
  Beta virt. eigenvalues --    3.15520   3.23383   3.24375   3.31062   3.31572
  Beta virt. eigenvalues --    3.34374   3.41977   3.45994   3.49285   3.54462
  Beta virt. eigenvalues --    3.68863   4.18040   4.18296   4.21950   4.45831
  Beta virt. eigenvalues --    6.28546   6.29043   6.33849   6.34829   6.49020
  Beta virt. eigenvalues --    6.72615   9.02265   9.06302   9.06954   9.09066
  Beta virt. eigenvalues --    9.15675   9.28976   9.32199   9.50841   9.61622
  Beta virt. eigenvalues --    9.71466  23.81202  23.95698  66.77587  66.81194
     Alpha Molecular Orbital Coefficients:
                           1         2         3         4         5
                           O         O         O         O         O
     Eigenvalues --   -24.71435 -24.71435 -10.34315 -10.19908  -1.28481
   1 1   C  1S          0.00005   0.00000   0.56298  -0.00060  -0.04700
   2        2S         -0.00018   0.00000   0.46334  -0.00052  -0.07208
   3        2PX         0.00006   0.00000  -0.00081  -0.00006  -0.02169
   4        2PY        -0.00007   0.00000   0.00121  -0.00059   0.03734
   5        2PZ         0.00000  -0.00012   0.00000   0.00000   0.00000
   6        3S          0.00007   0.00000   0.01879   0.00072   0.19495
   7        3PX        -0.00072   0.00000  -0.00122  -0.00011  -0.02426
   8        3PY         0.00105   0.00000   0.00006   0.00123   0.04555
   9        3PZ         0.00000   0.00176   0.00000   0.00000   0.00000
  10        4S          0.01099   0.00000  -0.00982   0.00365  -0.09192
  11        4PX        -0.00239   0.00000   0.00095  -0.00083   0.03193
  12        4PY         0.00136   0.00000  -0.00044   0.00122   0.00089
  13        4PZ         0.00000   0.00346   0.00000   0.00000   0.00000
  14        5S         -0.01049   0.00000   0.00575   0.00634   0.11310
  15        5PX         0.00126   0.00000  -0.00089  -0.00055  -0.01325
  16        5PY         0.00201   0.00000  -0.00151  -0.00138  -0.02221
  17        5PZ         0.00000  -0.00148   0.00000   0.00000   0.00000
  18        6D 0        0.00008   0.00000   0.00015  -0.00005   0.00923
  19        6D+1        0.00000  -0.00000   0.00000   0.00000   0.00000
  20        6D-1        0.00000   0.00021   0.00000   0.00000   0.00000
  21        6D+2        0.00001   0.00000  -0.00004  -0.00002  -0.00372
  22        6D-2       -0.00002   0.00000   0.00005   0.00002  -0.00495
  23        7D 0        0.00084   0.00000   0.00059   0.00171  -0.00028
  24        7D+1        0.00000  -0.00102   0.00000   0.00000   0.00000
  25        7D-1        0.00000   0.00066   0.00000   0.00000   0.00000
  26        7D+2       -0.00081   0.00000  -0.00070   0.00105   0.00837
  27        7D-2       -0.00055   0.00000  -0.00050  -0.00089  -0.00296
  28 2   F  1S          0.38724   0.38725  -0.00004   0.00000  -0.08230
  29        2S          0.33366   0.33368  -0.00011  -0.00001  -0.13299
  30        2PX         0.00017   0.00017   0.00003   0.00001   0.00808
  31        2PY        -0.00032  -0.00033  -0.00008  -0.00002  -0.01578
  32        2PZ        -0.00050  -0.00051  -0.00014  -0.00003  -0.02964
  33        3S          0.00915   0.00896   0.00108   0.00017   0.39215
  34        3PX        -0.00003  -0.00002   0.00008  -0.00003   0.01362
  35        3PY        -0.00000   0.00003  -0.00004   0.00010  -0.02586
  36        3PZ        -0.00001   0.00004  -0.00003   0.00010  -0.04832
  37        4S         -0.00796  -0.00707  -0.00304  -0.00172   0.32274
  38        4PX        -0.00043  -0.00032  -0.00093  -0.00016   0.00947
  39        4PY         0.00106   0.00109   0.00133   0.00066  -0.02347
  40        4PZ         0.00208   0.00129   0.00216   0.00055  -0.04181
  41        5S          0.00080   0.00234   0.00334  -0.00061  -0.00136
  42        5PX        -0.00007  -0.00010   0.00078   0.00002  -0.00163
  43        5PY         0.00005  -0.00008  -0.00161  -0.00027   0.00083
  44        5PZ         0.00030  -0.00047  -0.00197   0.00014  -0.00159
  45        6D 0        0.00008   0.00005   0.00017   0.00001   0.00109
  46        6D+1       -0.00007  -0.00006  -0.00012   0.00002  -0.00075
  47        6D-1        0.00011   0.00013   0.00023   0.00003   0.00132
  48        6D+2        0.00001  -0.00000  -0.00006   0.00002   0.00000
  49        6D-2       -0.00003  -0.00003  -0.00009  -0.00004  -0.00039
  50        7D 0       -0.00033  -0.00019  -0.00074  -0.00005   0.00648
  51        7D+1        0.00017   0.00014   0.00054  -0.00006  -0.00432
  52        7D-1       -0.00031  -0.00041  -0.00099  -0.00019   0.00841
  53        7D+2        0.00007   0.00013   0.00025  -0.00004  -0.00181
  54        7D-2        0.00012   0.00009   0.00037   0.00018  -0.00237
  55 3   F  1S          0.38724  -0.38725  -0.00004   0.00000  -0.08230
  56        2S          0.33366  -0.33368  -0.00011  -0.00001  -0.13299
  57        2PX         0.00017  -0.00017   0.00003   0.00001   0.00808
  58        2PY        -0.00032   0.00033  -0.00008  -0.00002  -0.01578
  59        2PZ         0.00050  -0.00051   0.00014   0.00003   0.02964
  60        3S          0.00915  -0.00896   0.00108   0.00017   0.39215
  61        3PX        -0.00003   0.00002   0.00008  -0.00003   0.01362
  62        3PY        -0.00000  -0.00003  -0.00004   0.00010  -0.02586
  63        3PZ         0.00001   0.00004   0.00003  -0.00010   0.04832
  64        4S         -0.00796   0.00707  -0.00304  -0.00172   0.32274
  65        4PX        -0.00043   0.00032  -0.00093  -0.00016   0.00947
  66        4PY         0.00106  -0.00109   0.00133   0.00066  -0.02347
  67        4PZ        -0.00208   0.00129  -0.00216  -0.00055   0.04181
  68        5S          0.00080  -0.00234   0.00334  -0.00061  -0.00136
  69        5PX        -0.00007   0.00010   0.00078   0.00002  -0.00163
  70        5PY         0.00005   0.00008  -0.00161  -0.00027   0.00083
  71        5PZ        -0.00030  -0.00047   0.00197  -0.00014   0.00159
  72        6D 0        0.00008  -0.00005   0.00017   0.00001   0.00109
  73        6D+1        0.00007  -0.00006   0.00012  -0.00002   0.00075
  74        6D-1       -0.00011   0.00013  -0.00023  -0.00003  -0.00132
  75        6D+2        0.00001   0.00000  -0.00006   0.00002   0.00000
  76        6D-2       -0.00003   0.00003  -0.00009  -0.00004  -0.00039
  77        7D 0       -0.00033   0.00019  -0.00074  -0.00005   0.00648
  78        7D+1       -0.00017   0.00014  -0.00054   0.00006   0.00432
  79        7D-1        0.00031  -0.00041   0.00099   0.00019  -0.00841
  80        7D+2        0.00007  -0.00013   0.00025  -0.00004  -0.00181
  81        7D-2        0.00012  -0.00009   0.00037   0.00018  -0.00237
  82 4   C  1S          0.00001   0.00000   0.00056   0.56293  -0.00501
  83        2S         -0.00002   0.00000   0.00046   0.46312  -0.00763
  84        2PX         0.00004   0.00000   0.00019   0.00015   0.00018
  85        2PY         0.00009   0.00000   0.00058   0.00037   0.00529
  86        2PZ         0.00000   0.00004   0.00000   0.00000   0.00000
  87        3S          0.00036   0.00000   0.00064   0.02006   0.01692
  88        3PX        -0.00015   0.00000  -0.00064  -0.00035   0.00224
  89        3PY        -0.00036   0.00000  -0.00165  -0.00103   0.01796
  90        3PZ         0.00000  -0.00014   0.00000   0.00000   0.00000
  91        4S         -0.00288   0.00000   0.00083  -0.00719   0.05815
  92        4PX         0.00028   0.00000  -0.00078  -0.00022  -0.00644
  93        4PY        -0.00198   0.00000  -0.00162  -0.00162   0.03411
  94        4PZ         0.00000  -0.00128   0.00000   0.00000   0.00000
  95        5S          0.00957   0.00000  -0.00599  -0.00952  -0.10441
  96        5PX         0.00037   0.00000   0.00019  -0.00009  -0.00412
  97        5PY         0.00271   0.00000  -0.00156  -0.00110  -0.03157
  98        5PZ         0.00000   0.00069   0.00000   0.00000   0.00000
  99        6D 0       -0.00005   0.00000   0.00007   0.00009  -0.00036
 100        6D+1        0.00000   0.00003   0.00000   0.00000   0.00000
 101        6D-1        0.00000   0.00002   0.00000   0.00000   0.00000
 102        6D+2       -0.00002   0.00000   0.00006   0.00003  -0.00144
 103        6D-2       -0.00001   0.00000   0.00001  -0.00005   0.00052
 104        7D 0        0.00027   0.00000   0.00076   0.00046  -0.00620
 105        7D+1        0.00000  -0.00013   0.00000   0.00000   0.00000
 106        7D-1        0.00000  -0.00040   0.00000   0.00000   0.00000
 107        7D+2        0.00028   0.00000   0.00167   0.00129  -0.00515
 108        7D-2       -0.00016   0.00000  -0.00124  -0.00047   0.00135
 109 5   H  1S          0.00003  -0.00003  -0.00007   0.00025   0.00129
 110        2S         -0.00013   0.00025  -0.00096  -0.00375   0.00337
 111        3S         -0.00044   0.00002  -0.00009   0.00363   0.00414
 112        4PX         0.00001   0.00000   0.00009   0.00079  -0.00052
 113        4PY        -0.00006   0.00003  -0.00000  -0.00085   0.00089
 114        4PZ         0.00006   0.00000   0.00028   0.00179  -0.00074
 115 6   H  1S         -0.00003   0.00000  -0.00012   0.00021   0.00186
 116        2S          0.00031   0.00000  -0.00137  -0.00400  -0.00453
 117        3S         -0.00040   0.00000   0.00027   0.00376   0.00245
 118        4PX        -0.00005   0.00000  -0.00031  -0.00217   0.00074
 119        4PY        -0.00007   0.00000  -0.00008  -0.00016   0.00066
 120        4PZ         0.00000   0.00000   0.00000   0.00000   0.00000
 121 7   H  1S          0.00003   0.00003  -0.00007   0.00025   0.00129
 122        2S         -0.00013  -0.00025  -0.00096  -0.00375   0.00337
 123        3S         -0.00044  -0.00002  -0.00009   0.00363   0.00414
 124        4PX         0.00001  -0.00000   0.00009   0.00079  -0.00052
 125        4PY        -0.00006  -0.00003  -0.00000  -0.00085   0.00089
 126        4PZ        -0.00006   0.00000  -0.00028  -0.00179   0.00074
                           6         7         8         9        10
                           O         O         O         O         O
     Eigenvalues --    -1.22754  -0.79141  -0.65945  -0.57793  -0.53889
   1 1   C  1S          0.00000  -0.06324  -0.06542   0.00000  -0.01111
   2        2S          0.00000  -0.09948  -0.10445   0.00000  -0.01791
   3        2PX         0.00000  -0.01752  -0.00947   0.00000   0.13614
   4        2PY         0.00000  -0.06626   0.07270   0.00000   0.02443
   5        2PZ         0.06737   0.00000   0.00000   0.15260   0.00000
   6        3S          0.00000   0.28235   0.31429   0.00000   0.05342
   7        3PX         0.00000  -0.02624  -0.01266   0.00000   0.20851
   8        3PY         0.00000  -0.09573   0.10948   0.00000   0.03737
   9        3PZ         0.08120   0.00000   0.00000   0.22181   0.00000
  10        4S          0.00000   0.15565   0.11846   0.00000   0.07235
  11        4PX         0.00000  -0.00591   0.02326   0.00000   0.11259
  12        4PY         0.00000  -0.03613   0.03442   0.00000   0.00747
  13        4PZ        -0.00957   0.00000   0.00000   0.07743   0.00000
  14        5S          0.00000  -0.08241  -0.02026   0.00000  -0.17079
  15        5PX         0.00000   0.00994   0.01027   0.00000   0.03460
  16        5PY         0.00000   0.01474   0.00292   0.00000   0.05661
  17        5PZ         0.01806   0.00000   0.00000  -0.00802   0.00000
  18        6D 0        0.00000  -0.00395   0.00480   0.00000   0.00378
  19        6D+1       -0.00896   0.00000   0.00000  -0.00926   0.00000
  20        6D-1        0.01610   0.00000   0.00000   0.01549   0.00000
  21        6D+2        0.00000  -0.00329  -0.00136   0.00000  -0.00592
  22        6D-2        0.00000   0.00434  -0.00425   0.00000   0.00564
  23        7D 0        0.00000  -0.00448  -0.00027   0.00000   0.00720
  24        7D+1       -0.00477   0.00000   0.00000  -0.01282   0.00000
  25        7D-1        0.01125   0.00000   0.00000   0.01103   0.00000
  26        7D+2        0.00000  -0.00174   0.00665   0.00000  -0.01390
  27        7D-2        0.00000   0.00692  -0.00635   0.00000   0.00772
  28 2   F  1S         -0.08888   0.02324   0.03040   0.02183  -0.00113
  29        2S         -0.14392   0.03803   0.04983   0.03574  -0.00191
  30        2PX         0.00847   0.00608   0.04178   0.06794   0.16388
  31        2PY        -0.01612  -0.03847  -0.04916  -0.13048   0.04184
  32        2PZ        -0.01960  -0.03013  -0.12999  -0.11713   0.03526
  33        3S          0.42883  -0.11879  -0.15685  -0.11215   0.00713
  34        3PX         0.01397   0.00859   0.06032   0.09854   0.23587
  35        3PY        -0.02670  -0.05508  -0.07139  -0.18923   0.05986
  36        3PZ        -0.03344  -0.04302  -0.18849  -0.17003   0.05091
  37        4S          0.33478  -0.11042  -0.15478  -0.13238   0.00012
  38        4PX         0.00803   0.00551   0.04509   0.07404   0.19441
  39        4PY        -0.01942  -0.03884  -0.05008  -0.14126   0.05162
  40        4PZ        -0.02222  -0.02873  -0.13803  -0.12014   0.04179
  41        5S         -0.02772  -0.01369  -0.02224  -0.04477   0.01546
  42        5PX        -0.00052  -0.00123  -0.00499   0.00533   0.00608
  43        5PY         0.00336   0.00717  -0.00112  -0.00479  -0.00265
  44        5PZ         0.00920   0.00284  -0.00375  -0.00412   0.00347
  45        6D 0        0.00042   0.00026   0.00236   0.00108  -0.00074
  46        6D+1       -0.00083  -0.00020  -0.00138  -0.00160  -0.00178
  47        6D-1        0.00136   0.00113   0.00212   0.00315  -0.00078
  48        6D+2       -0.00001  -0.00061  -0.00034  -0.00100   0.00093
  49        6D-2       -0.00044  -0.00029  -0.00072  -0.00126  -0.00098
  50        7D 0        0.00437   0.00034   0.00867   0.00206  -0.00373
  51        7D+1       -0.00354  -0.00041  -0.00537  -0.00545  -0.01204
  52        7D-1        0.00755   0.00469   0.00773   0.01085  -0.00493
  53        7D+2       -0.00182  -0.00284  -0.00072  -0.00466   0.00560
  54        7D-2       -0.00251  -0.00091  -0.00239  -0.00578  -0.00694
  55 3   F  1S          0.08888   0.02324   0.03040  -0.02183  -0.00113
  56        2S          0.14392   0.03803   0.04983  -0.03574  -0.00191
  57        2PX        -0.00847   0.00608   0.04178  -0.06794   0.16388
  58        2PY         0.01612  -0.03847  -0.04916   0.13048   0.04184
  59        2PZ        -0.01960   0.03013   0.12999  -0.11713  -0.03526
  60        3S         -0.42883  -0.11879  -0.15685   0.11215   0.00713
  61        3PX        -0.01397   0.00859   0.06032  -0.09854   0.23587
  62        3PY         0.02670  -0.05508  -0.07139   0.18923   0.05986
  63        3PZ        -0.03344   0.04302   0.18849  -0.17003  -0.05091
  64        4S         -0.33478  -0.11042  -0.15478   0.13238   0.00012
  65        4PX        -0.00803   0.00551   0.04509  -0.07404   0.19441
  66        4PY         0.01942  -0.03884  -0.05008   0.14126   0.05162
  67        4PZ        -0.02222   0.02873   0.13803  -0.12014  -0.04179
  68        5S          0.02772  -0.01369  -0.02224   0.04477   0.01546
  69        5PX         0.00052  -0.00123  -0.00499  -0.00533   0.00608
  70        5PY        -0.00336   0.00717  -0.00112   0.00479  -0.00265
  71        5PZ         0.00920  -0.00284   0.00375  -0.00412  -0.00347
  72        6D 0       -0.00042   0.00026   0.00236  -0.00108  -0.00074
  73        6D+1       -0.00083   0.00020   0.00138  -0.00160   0.00178
  74        6D-1        0.00136  -0.00113  -0.00212   0.00315   0.00078
  75        6D+2        0.00001  -0.00061  -0.00034   0.00100   0.00093
  76        6D-2        0.00044  -0.00029  -0.00072   0.00126  -0.00098
  77        7D 0       -0.00437   0.00034   0.00867  -0.00206  -0.00373
  78        7D+1       -0.00354   0.00041   0.00537  -0.00545   0.01204
  79        7D-1        0.00755  -0.00469  -0.00773   0.01085   0.00493
  80        7D+2        0.00182  -0.00284  -0.00072   0.00466   0.00560
  81        7D-2        0.00251  -0.00091  -0.00239   0.00578  -0.00694
  82 4   C  1S          0.00000  -0.09313   0.04900   0.00000  -0.00633
  83        2S          0.00000  -0.14419   0.07616   0.00000  -0.00994
  84        2PX         0.00000   0.00739   0.00698   0.00000   0.05497
  85        2PY         0.00000   0.02984   0.03947   0.00000  -0.03983
  86        2PZ         0.00252   0.00000   0.00000   0.04231   0.00000
  87        3S          0.00000   0.37771  -0.20099   0.00000   0.02642
  88        3PX         0.00000   0.01199   0.00959   0.00000   0.07707
  89        3PY         0.00000   0.05272   0.05919   0.00000  -0.05673
  90        3PZ         0.00718   0.00000   0.00000   0.06396   0.00000
  91        4S          0.00000   0.19882  -0.11610   0.00000   0.00502
  92        4PX         0.00000  -0.00008   0.00170   0.00000   0.04103
  93        4PY         0.00000   0.01014   0.04501   0.00000  -0.03697
  94        4PZ         0.02011   0.00000   0.00000   0.04230   0.00000
  95        5S          0.00000   0.09317  -0.00659   0.00000   0.16147
  96        5PX         0.00000   0.00053  -0.00141   0.00000   0.00599
  97        5PY         0.00000   0.01911  -0.00156   0.00000   0.03827
  98        5PZ        -0.00893   0.00000   0.00000   0.00398   0.00000
  99        6D 0        0.00000  -0.00239  -0.00230   0.00000   0.00367
 100        6D+1       -0.00039   0.00000   0.00000   0.00179   0.00000
 101        6D-1        0.00104   0.00000   0.00000   0.00242   0.00000
 102        6D+2        0.00000  -0.00421  -0.00360   0.00000   0.00132
 103        6D-2        0.00000   0.00191   0.00165   0.00000   0.00157
 104        7D 0        0.00000  -0.00447  -0.00716   0.00000   0.00074
 105        7D+1        0.00646   0.00000   0.00000   0.00867   0.00000
 106        7D-1       -0.00014   0.00000   0.00000   0.00224   0.00000
 107        7D+2        0.00000  -0.00645  -0.00579   0.00000   0.00480
 108        7D-2        0.00000   0.00302   0.00186   0.00000   0.00778
 109 5   H  1S          0.00062   0.06209  -0.05215   0.02325   0.03486
 110        2S         -0.00779   0.07662  -0.06123   0.02364   0.05049
 111        3S         -0.00077  -0.00984  -0.00159   0.00586   0.00970
 112        4PX         0.00003  -0.00463   0.00357  -0.00162   0.00049
 113        4PY         0.00014   0.00733  -0.00239   0.00285   0.00128
 114        4PZ         0.00088  -0.01083   0.00773  -0.00040  -0.00567
 115 6   H  1S          0.00000   0.06177  -0.05025   0.00000  -0.03115
 116        2S          0.00000   0.07539  -0.06571   0.00000  -0.04225
 117        3S          0.00000  -0.01107   0.00229   0.00000  -0.01064
 118        4PX         0.00000   0.01310  -0.00898   0.00000  -0.00354
 119        4PY         0.00000   0.00246   0.00120   0.00000  -0.00386
 120        4PZ         0.00084   0.00000   0.00000   0.00327   0.00000
 121 7   H  1S         -0.00062   0.06209  -0.05215  -0.02325   0.03486
 122        2S          0.00779   0.07662  -0.06123  -0.02364   0.05049
 123        3S          0.00077  -0.00984  -0.00159  -0.00586   0.00970
 124        4PX        -0.00003  -0.00463   0.00357   0.00162   0.00049
 125        4PY        -0.00014   0.00733  -0.00239  -0.00285   0.00128
 126        4PZ         0.00088   0.01083  -0.00773  -0.00040   0.00567
                          11        12        13        14        15
                           O         O         O         O         O
     Eigenvalues --    -0.53208  -0.46193  -0.44220  -0.44134  -0.41557
   1 1   C  1S          0.02774   0.00000   0.00000  -0.01357   0.00000
   2        2S          0.04411   0.00000   0.00000  -0.02174   0.00000
   3        2PX        -0.01901   0.00000   0.00000   0.01761   0.00000
   4        2PY         0.12226   0.00000   0.00000  -0.05380   0.00000
   5        2PZ         0.00000   0.01029  -0.01895   0.00000   0.00143
   6        3S         -0.12964   0.00000   0.00000   0.06254   0.00000
   7        3PX        -0.03073   0.00000   0.00000   0.02693   0.00000
   8        3PY         0.18425   0.00000   0.00000  -0.07398   0.00000
   9        3PZ         0.00000   0.01193  -0.01964   0.00000  -0.00169
  10        4S         -0.10612   0.00000   0.00000   0.10396   0.00000
  11        4PX        -0.00977   0.00000   0.00000   0.00562   0.00000
  12        4PY         0.05457   0.00000   0.00000  -0.02465   0.00000
  13        4PZ         0.00000  -0.00619  -0.00877   0.00000   0.00101
  14        5S         -0.10523   0.00000   0.00000   0.00943   0.00000
  15        5PX         0.00306   0.00000   0.00000  -0.01751   0.00000
  16        5PY         0.04240   0.00000   0.00000   0.01296   0.00000
  17        5PZ         0.00000   0.01419   0.02451   0.00000  -0.01627
  18        6D 0       -0.00460   0.00000   0.00000  -0.01265   0.00000
  19        6D+1        0.00000   0.01069   0.01305   0.00000  -0.00092
  20        6D-1        0.00000   0.01485  -0.01342   0.00000   0.00279
  21        6D+2       -0.00426   0.00000   0.00000  -0.00402   0.00000
  22        6D-2       -0.00770   0.00000   0.00000  -0.00655   0.00000
  23        7D 0       -0.01948   0.00000   0.00000  -0.01736   0.00000
  24        7D+1        0.00000   0.02144   0.02252   0.00000   0.00017
  25        7D-1        0.00000   0.03425  -0.02984   0.00000   0.00055
  26        7D+2       -0.01284   0.00000   0.00000  -0.01419   0.00000
  27        7D-2       -0.01223   0.00000   0.00000  -0.02120   0.00000
  28 2   F  1S          0.00332  -0.00065   0.00094   0.00026  -0.00037
  29        2S          0.00542  -0.00115   0.00164   0.00045  -0.00061
  30        2PX        -0.00643   0.17549   0.12357  -0.08921  -0.01724
  31        2PY         0.10100   0.09578  -0.01723   0.07916   0.13964
  32        2PZ        -0.11295  -0.04723   0.14547  -0.03185  -0.10988
  33        3S         -0.01669   0.00478  -0.00623  -0.00130   0.00153
  34        3PX        -0.00936   0.25254   0.17664  -0.12854  -0.02442
  35        3PY         0.14545   0.13684  -0.02316   0.11410   0.20025
  36        3PZ        -0.16275  -0.06885   0.21040  -0.04497  -0.15812
  37        4S         -0.01812  -0.00145   0.00574  -0.00963   0.00680
  38        4PX        -0.00730   0.21161   0.15771  -0.11105  -0.02248
  39        4PY         0.12079   0.11964  -0.02643   0.09852   0.17779
  40        4PZ        -0.13109  -0.05223   0.17588  -0.03522  -0.14217
  41        5S          0.00996  -0.00858   0.01115  -0.00988  -0.01845
  42        5PX        -0.00061   0.02881   0.02197  -0.01529  -0.00216
  43        5PY         0.00179   0.01375  -0.00468   0.01295   0.03170
  44        5PZ        -0.01865  -0.00668   0.01198  -0.00609  -0.00668
  45        6D 0        0.00227   0.00045  -0.00118   0.00047   0.00060
  46        6D+1       -0.00045  -0.00130   0.00001   0.00052  -0.00014
  47        6D-1       -0.00031  -0.00014  -0.00091  -0.00058  -0.00026
  48        6D+2        0.00065   0.00091   0.00025   0.00009   0.00028
  49        6D-2        0.00043  -0.00053  -0.00032   0.00043   0.00026
  50        7D 0        0.01069   0.00310  -0.01044   0.00239   0.00930
  51        7D+1       -0.00128  -0.00856  -0.00360   0.00443  -0.00135
  52        7D-1       -0.00413  -0.00284  -0.00506  -0.00287  -0.00236
  53        7D+2        0.00480   0.00594   0.00076   0.00066   0.00409
  54        7D-2        0.00267  -0.00452  -0.00463   0.00265   0.00327
  55 3   F  1S          0.00332   0.00065  -0.00094   0.00026   0.00037
  56        2S          0.00542   0.00115  -0.00164   0.00045   0.00061
  57        2PX        -0.00643  -0.17549  -0.12357  -0.08921   0.01724
  58        2PY         0.10100  -0.09578   0.01723   0.07916  -0.13964
  59        2PZ         0.11295  -0.04723   0.14547   0.03185  -0.10988
  60        3S         -0.01669  -0.00478   0.00623  -0.00130  -0.00153
  61        3PX        -0.00936  -0.25254  -0.17664  -0.12854   0.02442
  62        3PY         0.14545  -0.13684   0.02316   0.11410  -0.20025
  63        3PZ         0.16275  -0.06885   0.21040   0.04497  -0.15812
  64        4S         -0.01812   0.00145  -0.00574  -0.00963  -0.00680
  65        4PX        -0.00730  -0.21161  -0.15771  -0.11105   0.02248
  66        4PY         0.12079  -0.11964   0.02643   0.09852  -0.17779
  67        4PZ         0.13109  -0.05223   0.17588   0.03522  -0.14217
  68        5S          0.00996   0.00858  -0.01115  -0.00988   0.01845
  69        5PX        -0.00061  -0.02881  -0.02197  -0.01529   0.00216
  70        5PY         0.00179  -0.01375   0.00468   0.01295  -0.03170
  71        5PZ         0.01865  -0.00668   0.01198   0.00609  -0.00668
  72        6D 0        0.00227  -0.00045   0.00118   0.00047  -0.00060
  73        6D+1        0.00045  -0.00130   0.00001  -0.00052  -0.00014
  74        6D-1        0.00031  -0.00014  -0.00091   0.00058  -0.00026
  75        6D+2        0.00065  -0.00091  -0.00025   0.00009  -0.00028
  76        6D-2        0.00043   0.00053   0.00032   0.00043  -0.00026
  77        7D 0        0.01069  -0.00310   0.01044   0.00239  -0.00930
  78        7D+1        0.00128  -0.00856  -0.00360  -0.00443  -0.00135
  79        7D-1        0.00413  -0.00284  -0.00506   0.00287  -0.00236
  80        7D+2        0.00480  -0.00594  -0.00076   0.00066  -0.00409
  81        7D-2        0.00267   0.00452   0.00463   0.00265  -0.00327
  82 4   C  1S         -0.02530   0.00000   0.00000  -0.00117   0.00000
  83        2S         -0.03961   0.00000   0.00000  -0.00202   0.00000
  84        2PX        -0.04206   0.00000   0.00000   0.17621   0.00000
  85        2PY        -0.11120   0.00000   0.00000   0.01827   0.00000
  86        2PZ         0.00000  -0.09139   0.11724   0.00000   0.14271
  87        3S          0.10385   0.00000   0.00000   0.00901   0.00000
  88        3PX        -0.06142   0.00000   0.00000   0.24478   0.00000
  89        3PY        -0.15590   0.00000   0.00000   0.02741   0.00000
  90        3PZ         0.00000  -0.11895   0.15738   0.00000   0.20201
  91        4S          0.07897   0.00000   0.00000  -0.01962   0.00000
  92        4PX        -0.03498   0.00000   0.00000   0.16427   0.00000
  93        4PY        -0.09886   0.00000   0.00000   0.00471   0.00000
  94        4PZ         0.00000  -0.08040   0.09612   0.00000   0.13378
  95        5S          0.10884   0.00000   0.00000  -0.00013   0.00000
  96        5PX         0.01423   0.00000   0.00000   0.02400   0.00000
  97        5PY         0.01873   0.00000   0.00000  -0.00416   0.00000
  98        5PZ         0.00000  -0.02560  -0.00128   0.00000   0.01247
  99        6D 0        0.00432   0.00000   0.00000   0.00520   0.00000
 100        6D+1        0.00000  -0.00392   0.00609   0.00000   0.00704
 101        6D-1        0.00000   0.00236  -0.00563   0.00000  -0.00837
 102        6D+2        0.00839   0.00000   0.00000  -0.00983   0.00000
 103        6D-2       -0.00439   0.00000   0.00000  -0.00044   0.00000
 104        7D 0        0.00293   0.00000   0.00000   0.00338   0.00000
 105        7D+1        0.00000   0.00658  -0.00275   0.00000   0.00574
 106        7D-1        0.00000   0.00284   0.00087   0.00000  -0.00447
 107        7D+2        0.00444   0.00000   0.00000  -0.00653   0.00000
 108        7D-2       -0.00944   0.00000   0.00000  -0.00101   0.00000
 109 5   H  1S          0.05072  -0.06130   0.08422   0.05003   0.10504
 110        2S          0.06841  -0.09276   0.12894   0.07210   0.15019
 111        3S          0.00669  -0.01511   0.04703   0.02101   0.06091
 112        4PX        -0.00560   0.00398  -0.00577   0.00734  -0.00694
 113        4PY        -0.00218  -0.00708   0.00838   0.00472   0.00652
 114        4PZ        -0.00752   0.00473  -0.00643  -0.00807  -0.00652
 115 6   H  1S          0.06826   0.00000   0.00000  -0.15393   0.00000
 116        2S          0.09524   0.00000   0.00000  -0.21802   0.00000
 117        3S          0.02394   0.00000   0.00000  -0.07230   0.00000
 118        4PX         0.01039   0.00000   0.00000  -0.01634   0.00000
 119        4PY        -0.00535   0.00000   0.00000  -0.00174   0.00000
 120        4PZ         0.00000  -0.00526   0.00565   0.00000   0.00875
 121 7   H  1S          0.05072   0.06130  -0.08422   0.05003  -0.10504
 122        2S          0.06841   0.09276  -0.12894   0.07210  -0.15019
 123        3S          0.00669   0.01511  -0.04703   0.02101  -0.06091
 124        4PX        -0.00560  -0.00398   0.00577   0.00734   0.00694
 125        4PY        -0.00218   0.00708  -0.00838   0.00472  -0.00652
 126        4PZ         0.00752   0.00473  -0.00643   0.00807  -0.00652
                          16        17        18        19        20
                           O         O         V         V         V
     Eigenvalues --    -0.41292  -0.23208   0.00429   0.03591   0.04500
   1 1   C  1S         -0.02502  -0.03512  -0.00237   0.00782   0.00108
   2        2S         -0.03986  -0.05742  -0.00300   0.01388   0.00098
   3        2PX         0.01423   0.25359  -0.05876  -0.04753  -0.00938
   4        2PY        -0.09914   0.04741  -0.00281   0.05494  -0.02029
   5        2PZ         0.00000   0.00000   0.00000   0.00000   0.00000
   6        3S          0.11381   0.17529  -0.01670  -0.08501   0.02245
   7        3PX         0.01689   0.38521  -0.07920  -0.07069  -0.00941
   8        3PY        -0.13751   0.07597   0.00668   0.06776  -0.02514
   9        3PZ         0.00000   0.00000   0.00000   0.00000   0.00000
  10        4S          0.19443   0.37327   0.19251   0.37959  -0.40736
  11        4PX        -0.00112   0.35028  -0.21529  -0.20562   0.07283
  12        4PY        -0.10150   0.06179   0.26587   0.26093  -0.03136
  13        4PZ         0.00000   0.00000   0.00000   0.00000   0.00000
  14        5S         -0.04286   0.32404   0.26171  -5.05881   0.27947
  15        5PX         0.00732   0.02733  -0.10067   0.46664   0.23664
  16        5PY         0.03108  -0.06961   0.24498   2.28548  -0.28539
  17        5PZ         0.00000   0.00000   0.00000   0.00000   0.00000
  18        6D 0       -0.01894  -0.00549  -0.00310  -0.00374  -0.00063
  19        6D+1        0.00000   0.00000   0.00000   0.00000   0.00000
  20        6D-1        0.00000   0.00000   0.00000   0.00000   0.00000
  21        6D+2       -0.00568   0.01201   0.00343   0.00445   0.00198
  22        6D-2        0.00963  -0.00152   0.00165   0.00386   0.00087
  23        7D 0       -0.03365  -0.01198   0.02247   0.00663   0.00640
  24        7D+1        0.00000   0.00000   0.00000   0.00000   0.00000
  25        7D-1        0.00000   0.00000   0.00000   0.00000   0.00000
  26        7D+2       -0.01693   0.02573   0.02071   0.00202   0.02200
  27        7D-2        0.01667  -0.00520  -0.01578   0.00878  -0.00606
  28 2   F  1S          0.00211   0.00616   0.00966   0.01292  -0.00780
  29        2S          0.00356   0.01031   0.01627   0.02169  -0.01326
  30        2PX         0.01515  -0.12631   0.01799  -0.00078  -0.02034
  31        2PY         0.16026  -0.01448   0.01126  -0.01512   0.00808
  32        2PZ         0.00168   0.01814   0.00519   0.01225  -0.00244
  33        3S         -0.01202  -0.03542  -0.05775  -0.07576   0.05041
  34        3PX         0.02087  -0.18027   0.02519  -0.00479  -0.03303
  35        3PY         0.23060  -0.01922   0.01706  -0.02540   0.01086
  36        3PZ         0.00496   0.02739   0.00715   0.01899  -0.00328
  37        4S         -0.01490  -0.04816  -0.09220  -0.13637   0.04067
  38        4PX         0.02151  -0.17802   0.02267   0.00542  -0.01090
  39        4PY         0.20356  -0.02065   0.03195   0.01375   0.01164
  40        4PZ         0.00017   0.02910   0.03841   0.04325  -0.01820
  41        5S         -0.00217  -0.04420  -0.47419  -0.47515   0.44623
  42        5PX         0.00397  -0.08037   0.00718  -0.07510  -0.06987
  43        5PY         0.03633  -0.00418   0.08141  -0.03869  -0.10230
  44        5PZ        -0.00436   0.00695   0.12367   0.16327  -0.09944
  45        6D 0       -0.00023  -0.00035   0.00037   0.00050  -0.00024
  46        6D+1        0.00017  -0.00099   0.00033   0.00010   0.00038
  47        6D-1       -0.00107  -0.00053   0.00040   0.00029  -0.00011
  48        6D+2        0.00042   0.00075  -0.00022  -0.00007  -0.00006
  49        6D-2        0.00051  -0.00061   0.00023   0.00025   0.00000
  50        7D 0        0.00018  -0.00293  -0.00112  -0.00021   0.00177
  51        7D+1       -0.00016  -0.00388   0.00281   0.00294   0.00076
  52        7D-1       -0.00707  -0.00324  -0.00284  -0.00295   0.00206
  53        7D+2        0.00375   0.00413   0.00073   0.00108  -0.00162
  54        7D-2        0.00134  -0.00254   0.00255   0.00361  -0.00021
  55 3   F  1S          0.00211   0.00616   0.00966   0.01292  -0.00780
  56        2S          0.00356   0.01031   0.01627   0.02169  -0.01326
  57        2PX         0.01515  -0.12631   0.01799  -0.00078  -0.02034
  58        2PY         0.16026  -0.01448   0.01126  -0.01512   0.00808
  59        2PZ        -0.00168  -0.01814  -0.00519  -0.01225   0.00244
  60        3S         -0.01202  -0.03542  -0.05775  -0.07576   0.05041
  61        3PX         0.02087  -0.18027   0.02519  -0.00479  -0.03303
  62        3PY         0.23060  -0.01922   0.01706  -0.02540   0.01086
  63        3PZ        -0.00496  -0.02739  -0.00715  -0.01899   0.00328
  64        4S         -0.01490  -0.04816  -0.09220  -0.13637   0.04067
  65        4PX         0.02151  -0.17802   0.02267   0.00542  -0.01090
  66        4PY         0.20356  -0.02065   0.03195   0.01375   0.01164
  67        4PZ        -0.00017  -0.02910  -0.03841  -0.04325   0.01820
  68        5S         -0.00217  -0.04420  -0.47419  -0.47515   0.44623
  69        5PX         0.00397  -0.08037   0.00718  -0.07510  -0.06987
  70        5PY         0.03633  -0.00418   0.08141  -0.03869  -0.10230
  71        5PZ         0.00436  -0.00695  -0.12367  -0.16327   0.09944
  72        6D 0       -0.00023  -0.00035   0.00037   0.00050  -0.00024
  73        6D+1       -0.00017   0.00099  -0.00033  -0.00010  -0.00038
  74        6D-1        0.00107   0.00053  -0.00040  -0.00029   0.00011
  75        6D+2        0.00042   0.00075  -0.00022  -0.00007  -0.00006
  76        6D-2        0.00051  -0.00061   0.00023   0.00025   0.00000
  77        7D 0        0.00018  -0.00293  -0.00112  -0.00021   0.00177
  78        7D+1        0.00016   0.00388  -0.00281  -0.00294  -0.00076
  79        7D-1        0.00707   0.00324   0.00284   0.00295  -0.00206
  80        7D+2        0.00375   0.00413   0.00073   0.00108  -0.00162
  81        7D-2        0.00134  -0.00254   0.00255   0.00361  -0.00021
  82 4   C  1S         -0.00656   0.01625   0.03843  -0.00744   0.00118
  83        2S         -0.01072   0.02633   0.06342  -0.01252   0.00195
  84        2PX        -0.06687  -0.04867   0.00804  -0.03294  -0.07403
  85        2PY         0.14471  -0.05415   0.04324  -0.01220   0.01667
  86        2PZ         0.00000   0.00000   0.00000   0.00000   0.00000
  87        3S          0.03448  -0.08005  -0.20109   0.04932  -0.01036
  88        3PX        -0.09358  -0.05922   0.01171  -0.06054  -0.13233
  89        3PY         0.20132  -0.08595   0.08304  -0.02167   0.04583
  90        3PZ         0.00000   0.00000   0.00000   0.00000   0.00000
  91        4S         -0.05572  -0.10746  -0.36104   0.03228   0.13238
  92        4PX        -0.06619  -0.04419   0.05253  -0.11569  -0.21619
  93        4PY         0.10299  -0.08178   0.21138  -0.04989   0.12915
  94        4PZ         0.00000   0.00000   0.00000   0.00000   0.00000
  95        5S          0.05346  -0.19989   2.01330   5.83305  -0.85222
  96        5PX        -0.00069  -0.03446   0.03629   0.98752   0.97860
  97        5PY         0.01995  -0.05403  -0.25890   2.29308  -0.83701
  98        5PZ         0.00000   0.00000   0.00000   0.00000   0.00000
  99        6D 0       -0.01063  -0.00274   0.00059   0.00353  -0.00356
 100        6D+1        0.00000   0.00000   0.00000   0.00000   0.00000
 101        6D-1        0.00000   0.00000   0.00000   0.00000   0.00000
 102        6D+2       -0.00219   0.00990  -0.00159   0.00142   0.00051
 103        6D-2        0.00691   0.00741  -0.00363  -0.00639   0.00163
 104        7D 0       -0.00591   0.00287  -0.01581   0.00913  -0.04896
 105        7D+1        0.00000   0.00000   0.00000   0.00000   0.00000
 106        7D-1        0.00000   0.00000   0.00000   0.00000   0.00000
 107        7D+2       -0.00265   0.01491  -0.02215   0.03480   0.00580
 108        7D-2        0.00308   0.02242   0.00714  -0.01892   0.01548
 109 5   H  1S         -0.07585  -0.02105  -0.00234   0.01330  -0.01984
 110        2S         -0.10785  -0.03960   0.09880   0.04160   0.03452
 111        3S         -0.04776  -0.03718  -0.26303  -0.01282  -0.15411
 112        4PX         0.00074  -0.00070   0.00484   0.00094   0.00158
 113        4PY         0.00213  -0.00518  -0.00446   0.00630  -0.00312
 114        4PZ         0.01000   0.00321   0.00933  -0.00031  -0.00018
 115 6   H  1S          0.05436   0.06609  -0.01917  -0.00038   0.02962
 116        2S          0.08756   0.12452   0.05473  -0.06344  -0.08953
 117        3S          0.03478   0.12457  -0.33780  -0.03906   0.42410
 118        4PX         0.00580   0.00490  -0.01371   0.00307   0.00592
 119        4PY         0.00796  -0.00181   0.00150   0.01067  -0.00325
 120        4PZ         0.00000   0.00000   0.00000   0.00000   0.00000
 121 7   H  1S         -0.07585  -0.02105  -0.00234   0.01330  -0.01984
 122        2S         -0.10785  -0.03960   0.09880   0.04160   0.03452
 123        3S         -0.04776  -0.03718  -0.26303  -0.01282  -0.15411
 124        4PX         0.00074  -0.00070   0.00484   0.00094   0.00158
 125        4PY         0.00213  -0.00518  -0.00446   0.00630  -0.00312
 126        4PZ        -0.01000  -0.00321  -0.00933   0.00031   0.00018
                          21        22        23        24        25
                           V         V         V         V         V
     Eigenvalues --     0.04593   0.06752   0.07303   0.08470   0.12455
   1 1   C  1S          0.00000   0.00000   0.02938  -0.01380   0.00000
   2        2S          0.00000   0.00000   0.04839  -0.02315   0.00000
   3        2PX         0.00000   0.00000   0.01436   0.04420   0.00000
   4        2PY         0.00000   0.00000   0.00915   0.03242   0.00000
   5        2PZ         0.00599   0.10343   0.00000   0.00000   0.08330
   6        3S          0.00000   0.00000  -0.15419   0.07055   0.00000
   7        3PX         0.00000   0.00000   0.03529   0.05825   0.00000
   8        3PY         0.00000   0.00000   0.00437   0.05327   0.00000
   9        3PZ        -0.00885   0.17490   0.00000   0.00000   0.13509
  10        4S          0.00000   0.00000  -0.54040   0.36628   0.00000
  11        4PX         0.00000   0.00000  -0.01150   0.07093   0.00000
  12        4PY         0.00000   0.00000   0.07535   0.22823   0.00000
  13        4PZ         0.25330   0.46970   0.00000   0.00000  -0.10081
  14        5S          0.00000   0.00000  -4.49987   3.41830   0.00000
  15        5PX         0.00000   0.00000   0.55883  -2.60402   0.00000
  16        5PY         0.00000   0.00000  -0.53881  -0.87587   0.00000
  17        5PZ         0.28265   2.22686   0.00000   0.00000  -1.58944
  18        6D 0        0.00000   0.00000   0.00252  -0.00190   0.00000
  19        6D+1        0.00209   0.00543   0.00000   0.00000  -0.00186
  20        6D-1        0.00365  -0.01379   0.00000   0.00000  -0.01769
  21        6D+2        0.00000   0.00000  -0.00382   0.00249   0.00000
  22        6D-2        0.00000   0.00000  -0.00632   0.00504   0.00000
  23        7D 0        0.00000   0.00000   0.00509   0.02906   0.00000
  24        7D+1        0.00699  -0.00014   0.00000   0.00000   0.02028
  25        7D-1        0.01013  -0.00590   0.00000   0.00000  -0.00870
  26        7D+2        0.00000   0.00000  -0.00752  -0.01066   0.00000
  27        7D-2        0.00000   0.00000  -0.02117  -0.01849   0.00000
  28 2   F  1S          0.00701   0.01838  -0.00919   0.00636   0.00925
  29        2S          0.01204   0.03101  -0.01548   0.01073   0.01533
  30        2PX        -0.00258  -0.02641   0.01111   0.01673   0.01353
  31        2PY         0.00440   0.03750   0.01434   0.00571   0.04793
  32        2PZ        -0.02305   0.00365  -0.03479   0.01582   0.02168
  33        3S         -0.04880  -0.11138   0.05520  -0.03823  -0.04813
  34        3PX        -0.00254  -0.04190   0.01661   0.03347   0.01325
  35        3PY         0.00943   0.05203   0.02811   0.00862   0.07359
  36        3PZ        -0.03654   0.00392  -0.05435   0.02243   0.04062
  37        4S         -0.01606  -0.15853   0.07933  -0.06522  -0.14062
  38        4PX        -0.01352  -0.03582   0.01988  -0.02726   0.04519
  39        4PY        -0.00462   0.09260  -0.01987   0.02627   0.05374
  40        4PZ        -0.01749   0.05011  -0.04479   0.05631   0.00552
  41        5S         -0.56076  -0.74127   0.11546  -0.51253   0.47450
  42        5PX        -0.03978  -0.14780   0.03537   0.16717  -0.08388
  43        5PY         0.20046   0.09400   0.21557   0.04142   0.03499
  44        5PZ         0.07482   0.03114  -0.08028   0.09864   0.09824
  45        6D 0        0.00015   0.00005  -0.00010   0.00037  -0.00015
  46        6D+1       -0.00018  -0.00051   0.00026  -0.00073  -0.00054
  47        6D-1        0.00003   0.00124  -0.00084   0.00029   0.00034
  48        6D+2        0.00005  -0.00056   0.00025   0.00009  -0.00036
  49        6D-2       -0.00017  -0.00062   0.00022  -0.00056  -0.00014
  50        7D 0        0.00135  -0.00380   0.00015  -0.00095  -0.00403
  51        7D+1        0.00018   0.00116  -0.00034  -0.00193  -0.00342
  52        7D-1       -0.00126   0.00081  -0.00316  -0.00275   0.00273
  53        7D+2        0.00115  -0.00049   0.00223   0.00270  -0.00466
  54        7D-2        0.00070  -0.00164  -0.00079  -0.00244   0.00058
  55 3   F  1S         -0.00701  -0.01838  -0.00919   0.00636  -0.00925
  56        2S         -0.01204  -0.03101  -0.01548   0.01073  -0.01533
  57        2PX         0.00258   0.02641   0.01111   0.01673  -0.01353
  58        2PY        -0.00440  -0.03750   0.01434   0.00571  -0.04793
  59        2PZ        -0.02305   0.00365   0.03479  -0.01582   0.02168
  60        3S          0.04880   0.11138   0.05520  -0.03823   0.04813
  61        3PX         0.00254   0.04190   0.01661   0.03347  -0.01325
  62        3PY        -0.00943  -0.05203   0.02811   0.00862  -0.07359
  63        3PZ        -0.03654   0.00392   0.05435  -0.02243   0.04062
  64        4S          0.01606   0.15853   0.07933  -0.06522   0.14062
  65        4PX         0.01352   0.03582   0.01988  -0.02726  -0.04519
  66        4PY         0.00462  -0.09260  -0.01987   0.02627  -0.05374
  67        4PZ        -0.01749   0.05011   0.04479  -0.05631   0.00552
  68        5S          0.56076   0.74127   0.11546  -0.51253  -0.47450
  69        5PX         0.03978   0.14780   0.03537   0.16717   0.08388
  70        5PY        -0.20046  -0.09400   0.21557   0.04142  -0.03499
  71        5PZ         0.07482   0.03114   0.08028  -0.09864   0.09824
  72        6D 0       -0.00015  -0.00005  -0.00010   0.00037   0.00015
  73        6D+1       -0.00018  -0.00051  -0.00026   0.00073  -0.00054
  74        6D-1        0.00003   0.00124   0.00084  -0.00029   0.00034
  75        6D+2       -0.00005   0.00056   0.00025   0.00009   0.00036
  76        6D-2        0.00017   0.00062   0.00022  -0.00056   0.00014
  77        7D 0       -0.00135   0.00380   0.00015  -0.00095   0.00403
  78        7D+1        0.00018   0.00116   0.00034   0.00193  -0.00342
  79        7D-1       -0.00126   0.00081   0.00316   0.00275   0.00273
  80        7D+2       -0.00115   0.00049   0.00223   0.00270   0.00466
  81        7D-2       -0.00070   0.00164  -0.00079  -0.00244  -0.00058
  82 4   C  1S          0.00000   0.00000   0.01064   0.00461   0.00000
  83        2S          0.00000   0.00000   0.01719   0.00721   0.00000
  84        2PX         0.00000   0.00000   0.02726  -0.04464   0.00000
  85        2PY         0.00000   0.00000   0.03226   0.00308   0.00000
  86        2PZ        -0.08323   0.04634   0.00000   0.00000   0.11005
  87        3S          0.00000   0.00000  -0.04185  -0.01679   0.00000
  88        3PX         0.00000   0.00000   0.04505  -0.08027   0.00000
  89        3PY         0.00000   0.00000   0.06129   0.01693   0.00000
  90        3PZ        -0.15392   0.08533   0.00000   0.00000   0.12587
  91        4S          0.00000   0.00000  -0.32155  -0.07097   0.00000
  92        4PX         0.00000   0.00000   0.15555  -0.20487   0.00000
  93        4PY         0.00000   0.00000   0.16936   0.05537   0.00000
  94        4PZ        -0.27821   0.20659   0.00000   0.00000   1.21219
  95        5S          0.00000   0.00000   4.61979  -3.20186   0.00000
  96        5PX         0.00000   0.00000   0.14625   1.73011   0.00000
  97        5PY         0.00000   0.00000   2.53180  -0.92168   0.00000
  98        5PZ         1.28482  -1.63279   0.00000   0.00000   1.98192
  99        6D 0        0.00000   0.00000   0.00278   0.00110   0.00000
 100        6D+1       -0.00153  -0.00035   0.00000   0.00000  -0.01479
 101        6D-1        0.00136   0.01142   0.00000   0.00000   0.01681
 102        6D+2        0.00000   0.00000   0.01112   0.00135   0.00000
 103        6D-2        0.00000   0.00000  -0.00168  -0.00101   0.00000
 104        7D 0        0.00000   0.00000   0.01619  -0.02389   0.00000
 105        7D+1       -0.03671   0.02665   0.00000   0.00000  -0.00450
 106        7D-1        0.02044   0.02707   0.00000   0.00000   0.03223
 107        7D+2        0.00000   0.00000   0.02565   0.01355   0.00000
 108        7D-2        0.00000   0.00000  -0.00319  -0.01935   0.00000
 109 5   H  1S         -0.02518  -0.02706   0.00527   0.00197  -0.07424
 110        2S          0.08558  -0.12786   0.05833   0.05552  -0.23822
 111        3S         -0.32316  -0.13113  -0.24832  -0.02943  -1.96885
 112        4PX         0.00210   0.00195   0.00887   0.00089  -0.01258
 113        4PY        -0.00195   0.00789   0.01146  -0.00005   0.00111
 114        4PZ         0.00456   0.00008   0.00470   0.00211  -0.00001
 115 6   H  1S          0.00000   0.00000   0.02874   0.01185   0.00000
 116        2S          0.00000   0.00000   0.14585  -0.08284   0.00000
 117        3S          0.00000   0.00000  -0.06572   0.15410   0.00000
 118        4PX         0.00000   0.00000  -0.00706   0.00079   0.00000
 119        4PY         0.00000   0.00000   0.00894   0.00560   0.00000
 120        4PZ         0.00103   0.00109   0.00000   0.00000   0.02164
 121 7   H  1S          0.02518   0.02706   0.00527   0.00197   0.07424
 122        2S         -0.08558   0.12786   0.05833   0.05552   0.23822
 123        3S          0.32316   0.13113  -0.24832  -0.02943   1.96885
 124        4PX        -0.00210  -0.00195   0.00887   0.00089   0.01258
 125        4PY         0.00195  -0.00789   0.01146  -0.00005  -0.00111
 126        4PZ         0.00456   0.00008  -0.00470  -0.00211  -0.00001
                          26        27        28        29        30
                           V         V         V         V         V
     Eigenvalues --     0.12815   0.13917   0.19447   0.19665   0.20804
   1 1   C  1S          0.03106  -0.00615   0.07694   0.00000  -0.02175
   2        2S          0.05155  -0.00954   0.12745   0.00000  -0.03471
   3        2PX         0.02048  -0.07654   0.12109   0.00000  -0.00116
   4        2PY        -0.07346   0.02154  -0.08653   0.00000   0.00454
   5        2PZ         0.00000   0.00000   0.00000   0.24049   0.00000
   6        3S         -0.18530  -0.00079  -0.39437   0.00000   0.06473
   7        3PX         0.02706  -0.09009   0.21919   0.00000   0.00106
   8        3PY        -0.11897   0.02999  -0.11861   0.00000  -0.02142
   9        3PZ         0.00000   0.00000   0.00000   0.38982   0.00000
  10        4S         -0.25901   0.82466  -2.11050   0.00000   1.85781
  11        4PX        -0.07231  -0.59018   0.51156   0.00000  -0.26436
  12        4PY        -0.35709   0.23774  -0.06428   0.00000   0.43838
  13        4PZ         0.00000   0.00000   0.00000   1.35233   0.00000
  14        5S         -4.63120  31.62787   9.75211   0.00000 -20.02397
  15        5PX        -0.38174  -2.54663  -0.93132   0.00000   1.39286
  16        5PY         2.21951  -9.22015  -2.15807   0.00000   4.85827
  17        5PZ         0.00000   0.00000   0.00000  -1.12039   0.00000
  18        6D 0        0.01005  -0.00612   0.01564   0.00000  -0.00378
  19        6D+1        0.00000   0.00000   0.00000   0.01849   0.00000
  20        6D-1        0.00000   0.00000   0.00000  -0.01988   0.00000
  21        6D+2       -0.00892   0.00423  -0.01333   0.00000  -0.00439
  22        6D-2       -0.01563  -0.00219  -0.00208   0.00000   0.00129
  23        7D 0        0.01454  -0.00271   0.07199   0.00000   0.04427
  24        7D+1        0.00000   0.00000   0.00000   0.01510   0.00000
  25        7D-1        0.00000   0.00000   0.00000  -0.06631   0.00000
  26        7D+2       -0.01111   0.02956  -0.03526   0.00000  -0.01934
  27        7D-2        0.00141  -0.00415  -0.04116   0.00000  -0.03064
  28 2   F  1S         -0.01379   0.00786  -0.02156   0.01751  -0.00141
  29        2S         -0.02289   0.01343  -0.03558   0.02861  -0.00260
  30        2PX         0.02597   0.02153   0.00690  -0.06431  -0.00861
  31        2PY        -0.04295   0.01068  -0.04505   0.08383   0.00518
  32        2PZ        -0.03910   0.01982  -0.11679   0.06651  -0.00588
  33        3S          0.07281  -0.05187   0.10708  -0.07853   0.01566
  34        3PX         0.03551   0.02862   0.01235  -0.08115  -0.01022
  35        3PY        -0.06803   0.01889  -0.06939   0.11450   0.01010
  36        3PZ        -0.06507   0.02201  -0.16798   0.09729  -0.00679
  37        4S          0.21728  -0.03877   0.39981  -0.41624  -0.05532
  38        4PX         0.06142   0.04389   0.01106  -0.18205  -0.03753
  39        4PY        -0.05376   0.01863  -0.08505   0.22168   0.02125
  40        4PZ        -0.05105   0.09468  -0.25130   0.16446   0.02321
  41        5S         -0.18693  -1.35771  -0.32707  -0.16119  -0.57986
  42        5PX        -0.02102  -0.03134   0.03699   0.13444  -0.05284
  43        5PY        -0.07472   0.29099  -0.18127   0.10967   0.37949
  44        5PZ        -0.17776   0.24399  -0.20511   0.16694   0.52523
  45        6D 0       -0.00125   0.00107  -0.00285  -0.00058   0.00143
  46        6D+1        0.00052   0.00061   0.00022  -0.00085  -0.00081
  47        6D-1       -0.00034   0.00103  -0.00233   0.00230   0.00139
  48        6D+2       -0.00015   0.00014   0.00054  -0.00112  -0.00017
  49        6D-2       -0.00019   0.00013  -0.00023  -0.00147  -0.00037
  50        7D 0       -0.00612   0.00189  -0.01122  -0.00531   0.00533
  51        7D+1        0.00247   0.00434  -0.00084  -0.00248  -0.00457
[...]
                                           -0.0003  0.0126  0.0055  0.0004 -0.0007
                                           -0.0176 -0.0021
                ( 61.28%)  -0.7828* H   5 s( 99.98%)p 0.00(  0.02%)
                                           -0.9999  0.0005  0.0010  0.0060 -0.0050
                                            0.0117
   125. (0.00121) BD*( 1) C   4 - H   6  
                ( 37.35%)   0.6112* C   4 s( 25.76%)p 2.88( 74.14%)d 0.00(  0.09%)
                                           -0.0004  0.5076  0.0042 -0.0011  0.0001
                                           -0.8583 -0.0115 -0.0035  0.0000 -0.0673
                                            0.0095 -0.0039  0.0029 -0.0000 -0.0000
                                           -0.0000 -0.0000 -0.0054  0.0042 -0.0000
                                           -0.0000  0.0000  0.0000  0.0213  0.0061
                                           -0.0198  0.0000
                ( 62.65%)  -0.7915* H   6 s( 99.98%)p 0.00(  0.02%)
                                            0.9998  0.0132  0.0005  0.0150  0.0026
                                           -0.0000
   126. (0.00229) BD*( 1) C   4 - H   7  
                ( 38.72%)   0.6223* C   4 s( 24.00%)p 3.16( 75.90%)d 0.00(  0.10%)
                                            0.0000 -0.4898 -0.0063  0.0032  0.0000
                                           -0.3203 -0.0067  0.0007 -0.0019  0.3962
                                           -0.0065  0.0052 -0.0026  0.7066  0.0079
                                            0.0010  0.0006  0.0035  0.0045  0.0216
                                            0.0003 -0.0126 -0.0055  0.0004 -0.0007
                                           -0.0176 -0.0021
                ( 61.28%)  -0.7828* H   7 s( 99.98%)p 0.00(  0.02%)
                                           -0.9999  0.0005  0.0010  0.0060 -0.0050
                                           -0.0117


 NHO Directionality and "Bond Bending" (deviations from line of nuclear centers)

         [Thresholds for printing:  angular deviation  >  1.0 degree]
                                    hybrid p-character > 25.0%
                                    orbital occupancy  >  0.10e

                                Line of Centers        Hybrid 1              Hybrid 2
                                ---------------  -------------------   ------------------
                NBO               Theta   Phi    Theta   Phi    Dev    Theta   Phi    Dev
 ========================================================================================
     1. BD (   1) C   1 - F   2    35.4  117.7    34.9  104.2   7.8    142.5  307.3   6.1
     2. BD (   1) C   1 - F   3   144.6  117.7   145.1  104.2   7.8     37.5  307.3   6.1
     3. BD (   1) C   1 - C   4    90.0  255.9    90.0  265.7   9.8     90.0   74.0   1.9
     5. BD (   1) C   4 - H   6    90.0  186.4    90.0  183.9   2.6      --     --    --
    11. LP*(   1) C   1             --     --     90.0    1.0   --       --     --    --
    12. LP (   1) F   2             --     --     35.8  105.3   --       --     --    --
    13. LP (   2) F   2             --     --     56.1  275.9   --       --     --    --
    14. LP (   3) F   2             --     --    102.4  194.2   --       --     --    --
    15. LP (   1) F   3             --     --    144.2  105.3   --       --     --    --
    16. LP (   2) F   3             --     --    123.9  275.9   --       --     --    --
    17. LP (   3) F   3             --     --     77.6  194.2   --       --     --    --


 Second Order Perturbation Theory Analysis of Fock Matrix in NBO Basis

     Threshold for printing:   0.25 kcal/mol
                                                                              E(2)  E(j)-E(i) F(i,j)
         Donor NBO (i)                     Acceptor NBO (j)                 kcal/mol   a.u.    a.u. 
 ===================================================================================================

 within unit  1
   1. BD (   1) C   1 - F   2        / 11. LP*(   1) C   1                    0.30    0.93    0.023
   1. BD (   1) C   1 - F   2        /122. BD*(   1) C   1 - F   3            0.64    1.28    0.036
   1. BD (   1) C   1 - F   2        /126. BD*(   1) C   4 - H   7            0.36    1.39    0.028
   2. BD (   1) C   1 - F   3        / 11. LP*(   1) C   1                    0.30    0.93    0.023
   2. BD (   1) C   1 - F   3        /121. BD*(   1) C   1 - F   2            0.64    1.28    0.036
   2. BD (   1) C   1 - F   3        /124. BD*(   1) C   4 - H   5            0.36    1.39    0.028
   3. BD (   1) C   1 - C   4        / 40. RY*(   1) F   2                    0.35    1.31    0.027
   3. BD (   1) C   1 - C   4        / 62. RY*(   1) F   3                    0.35    1.31    0.027
   4. BD (   1) C   4 - H   5        / 23. RY*(   6) C   1                    0.26    1.90    0.028
   4. BD (   1) C   4 - H   5        /122. BD*(   1) C   1 - F   3            2.39    0.80    0.055
   5. BD (   1) C   4 - H   6        / 11. LP*(   1) C   1                    7.35    0.44    0.078
   5. BD (   1) C   4 - H   6        / 24. RY*(   7) C   1                    0.27    2.93    0.036
   6. BD (   1) C   4 - H   7        / 23. RY*(   6) C   1                    0.26    1.90    0.028
   6. BD (   1) C   4 - H   7        /121. BD*(   1) C   1 - F   2            2.39    0.80    0.055
   7. CR (   1) C   1                / 11. LP*(   1) C   1                    0.69   10.16    0.116
   7. CR (   1) C   1                / 85. RY*(   2) C   4                    0.38   11.07    0.082
   7. CR (   1) C   1                / 88. RY*(   5) C   4                    0.28   11.12    0.071
   7. CR (   1) C   1                /121. BD*(   1) C   1 - F   2            0.55   10.51    0.097
   7. CR (   1) C   1                /122. BD*(   1) C   1 - F   3            0.55   10.51    0.097
   7. CR (   1) C   1                /123. BD*(   1) C   1 - C   4            0.48   10.63    0.090
   8. CR (   1) F   2                / 18. RY*(   1) C   1                    0.75   25.68    0.176
   8. CR (   1) F   2                / 19. RY*(   2) C   1                    0.50   25.71    0.143
   9. CR (   1) F   3                / 18. RY*(   1) C   1                    0.75   25.68    0.176
   9. CR (   1) F   3                / 19. RY*(   2) C   1                    0.50   25.71    0.143
  10. CR (   1) C   4                / 11. LP*(   1) C   1                    0.32    9.97    0.078
  10. CR (   1) C   4                / 19. RY*(   2) C   1                    0.38   11.31    0.083
  10. CR (   1) C   4                / 25. RY*(   8) C   1                    0.51   10.84    0.094
  10. CR (   1) C   4                /114. RY*(   4) H   6                    0.29   12.32    0.075
  11. LP*(   1) C   1                / 29. RY*(  12) C   1                    0.26    1.33    0.057
  11. LP*(   1) C   1                /121. BD*(   1) C   1 - F   2            0.60    0.35    0.042
  11. LP*(   1) C   1                /122. BD*(   1) C   1 - F   3            0.60    0.35    0.042
  11. LP*(   1) C   1                /123. BD*(   1) C   1 - C   4            0.44    0.47    0.043
  11. LP*(   1) C   1                /125. BD*(   1) C   4 - H   6            1.24    0.46    0.073
  12. LP (   1) F   2                / 11. LP*(   1) C   1                    0.34    0.97    0.025
  12. LP (   1) F   2                / 18. RY*(   1) C   1                    2.45    2.28    0.094
  12. LP (   1) F   2                / 19. RY*(   2) C   1                    1.65    2.31    0.078
  12. LP (   1) F   2                / 20. RY*(   3) C   1                    0.27    2.83    0.035
  12. LP (   1) F   2                /123. BD*(   1) C   1 - C   4            0.35    1.45    0.029
  13. LP (   2) F   2                / 20. RY*(   3) C   1                    0.37    2.21    0.036
  13. LP (   2) F   2                /122. BD*(   1) C   1 - F   3            6.44    0.70    0.085
  13. LP (   2) F   2                /123. BD*(   1) C   1 - C   4            2.02    0.82    0.052
  13. LP (   2) F   2                /126. BD*(   1) C   4 - H   7            0.25    0.81    0.018
  14. LP (   3) F   2                / 11. LP*(   1) C   1                   24.54    0.35    0.123
  14. LP (   3) F   2                / 22. RY*(   5) C   1                    0.39    2.40    0.040
  15. LP (   1) F   3                / 11. LP*(   1) C   1                    0.34    0.97    0.025
  15. LP (   1) F   3                / 18. RY*(   1) C   1                    2.45    2.28    0.094
  15. LP (   1) F   3                / 19. RY*(   2) C   1                    1.65    2.31    0.078
  15. LP (   1) F   3                / 20. RY*(   3) C   1                    0.27    2.83    0.035
  15. LP (   1) F   3                /123. BD*(   1) C   1 - C   4            0.35    1.45    0.029
  16. LP (   2) F   3                / 20. RY*(   3) C   1                    0.37    2.21    0.036
  16. LP (   2) F   3                /121. BD*(   1) C   1 - F   2            6.44    0.70    0.085
  16. LP (   2) F   3                /123. BD*(   1) C   1 - C   4            2.02    0.82    0.052
  16. LP (   2) F   3                /124. BD*(   1) C   4 - H   5            0.25    0.81    0.018
  17. LP (   3) F   3                / 11. LP*(   1) C   1                   24.54    0.35    0.123
  17. LP (   3) F   3                / 22. RY*(   5) C   1                    0.39    2.40    0.040


 Natural Bond Orbitals (Summary):

                                                            Principal Delocalizations
           NBO                        Occupancy    Energy   (geminal,vicinal,remote)
 ====================================================================================
 Molecular unit  1  (C2H3F2)
     1. BD (   1) C   1 - F   2          0.99802    -1.01699  122(g),11(g),126(v)
     2. BD (   1) C   1 - F   3          0.99802    -1.01699  121(g),11(g),124(v)
     3. BD (   1) C   1 - C   4          0.99742    -0.68186  40(v),62(v),11(g)
     4. BD (   1) C   4 - H   5          0.99038    -0.53544  122(v),23(v)
     5. BD (   1) C   4 - H   6          0.97622    -0.53312  11(v),24(v)
     6. BD (   1) C   4 - H   7          0.99038    -0.53544  121(v),23(v)
     7. CR (   1) C   1                  0.99952   -10.24901  11(g),121(g),122(g),123(g)
                                                    85(v),88(v)
     8. CR (   1) F   2                  0.99996   -24.46113  18(v),19(v)
     9. CR (   1) F   3                  0.99996   -24.46113  18(v),19(v)
    10. CR (   1) C   4                  0.99963   -10.06057  25(v),11(v),19(v),114(v)
    11. LP*(   1) C   1                  0.16726    -0.09066  125(v),121(g),122(g),123(g)
                                                    29(g)
    12. LP (   1) F   2                  0.99584    -1.06340  18(v),19(v),11(v),123(v)
                                                    20(v)
    13. LP (   2) F   2                  0.97661    -0.43970  122(v),123(v),20(v),126(r)
    14. LP (   3) F   2                  0.92781    -0.43937  11(v),22(v)
    15. LP (   1) F   3                  0.99584    -1.06340  18(v),19(v),11(v),123(v)
                                                    20(v)
    16. LP (   2) F   3                  0.97661    -0.43970  121(v),123(v),20(v),124(r)
    17. LP (   3) F   3                  0.92781    -0.43937  11(v),22(v)
    18. RY*(   1) C   1                  0.00430     1.21389   
    19. RY*(   2) C   1                  0.00377     1.24518   
    20. RY*(   3) C   1                  0.00127     1.76715   
    21. RY*(   4) C   1                  0.00097     2.32464   
    22. RY*(   5) C   1                  0.00082     1.95628   
    23. RY*(   6) C   1                  0.00070     1.36744   
    24. RY*(   7) C   1                  0.00026     2.40103   
    25. RY*(   8) C   1                  0.00007     0.77983   
    26. RY*(   9) C   1                  0.00001     2.05051   
    27. RY*(  10) C   1                  0.00000    22.44488   
    28. RY*(  11) C   1                  0.00000     0.88614   
    29. RY*(  12) C   1                  0.00000     1.24049   
    30. RY*(  13) C   1                  0.00000     0.86695   
    31. RY*(  14) C   1                  0.00000     2.86507   
    32. RY*(  15) C   1                  0.00000     1.71000   
    33. RY*(  16) C   1                  0.00000     3.05460   
    34. RY*(  17) C   1                  0.00000     1.07073   
    35. RY*(  18) C   1                  0.00000     2.78525   
    36. RY*(  19) C   1                  0.00000     2.23132   
    37. RY*(  20) C   1                  0.00000     2.66705   
    38. RY*(  21) C   1                  0.00000     1.33042   
    39. RY*(  22) C   1                  0.00000     2.78433   
    40. RY*(   1) F   2                  0.00080     0.62497   
    41. RY*(   2) F   2                  0.00020     1.98757   
    42. RY*(   3) F   2                  0.00014     1.05349   
    43. RY*(   4) F   2                  0.00005     1.96721   
    44. RY*(   5) F   2                  0.00004     2.24111   
    45. RY*(   6) F   2                  0.00000     5.87639   
    46. RY*(   7) F   2                  0.00000    66.40283   
    47. RY*(   8) F   2                  0.00000     2.00603   
    48. RY*(   9) F   2                  0.00000     5.42684   
    49. RY*(  10) F   2                  0.00000     1.64529   
    50. RY*(  11) F   2                  0.00001     1.39025   
    51. RY*(  12) F   2                  0.00000     5.65550   
    52. RY*(  13) F   2                  0.00001     2.11100   
    53. RY*(  14) F   2                  0.00000     9.03777   
    54. RY*(  15) F   2                  0.00000     1.94327   
    55. RY*(  16) F   2                  0.00000     9.05921   
    56. RY*(  17) F   2                  0.00001     2.07670   
    57. RY*(  18) F   2                  0.00000     9.21487   
    58. RY*(  19) F   2                  0.00000     1.70312   
    59. RY*(  20) F   2                  0.00000     8.50653   
    60. RY*(  21) F   2                  0.00000     2.44306   
    61. RY*(  22) F   2                  0.00000     8.93139   
    62. RY*(   1) F   3                  0.00080     0.62497   
    63. RY*(   2) F   3                  0.00020     1.98757   
    64. RY*(   3) F   3                  0.00014     1.05349   
    65. RY*(   4) F   3                  0.00005     1.96721   
    66. RY*(   5) F   3                  0.00004     2.24111   
    67. RY*(   6) F   3                  0.00000     5.87639   
    68. RY*(   7) F   3                  0.00000    66.40283   
    69. RY*(   8) F   3                  0.00000     2.00603   
    70. RY*(   9) F   3                  0.00000     5.42684   
    71. RY*(  10) F   3                  0.00000     1.64529   
    72. RY*(  11) F   3                  0.00001     1.39025   
    73. RY*(  12) F   3                  0.00000     5.65550   
    74. RY*(  13) F   3                  0.00001     2.11100   
    75. RY*(  14) F   3                  0.00000     9.03777   
    76. RY*(  15) F   3                  0.00000     1.94327   
    77. RY*(  16) F   3                  0.00000     9.05921   
    78. RY*(  17) F   3                  0.00001     2.07670   
    79. RY*(  18) F   3                  0.00000     9.21487   
    80. RY*(  19) F   3                  0.00000     1.70312   
    81. RY*(  20) F   3                  0.00000     8.50653   
    82. RY*(  21) F   3                  0.00000     2.44306   
    83. RY*(  22) F   3                  0.00000     8.93139   
    84. RY*(   1) C   4                  0.00084     0.78462   
    85. RY*(   2) C   4                  0.00041     0.82054   
    86. RY*(   3) C   4                  0.00024     1.71772   
    87. RY*(   4) C   4                  0.00018     0.97728   
    88. RY*(   5) C   4                  0.00016     0.86963   
    89. RY*(   6) C   4                  0.00011     1.24890   
    90. RY*(   7) C   4                  0.00009     1.22805   
    91. RY*(   8) C   4                  0.00000     0.55801   
    92. RY*(   9) C   4                  0.00000     1.95229   
    93. RY*(  10) C   4                  0.00000    23.34879   
    94. RY*(  11) C   4                  0.00000     0.98275   
    95. RY*(  12) C   4                  0.00000     2.12555   
    96. RY*(  13) C   4                  0.00000     0.92579   
    97. RY*(  14) C   4                  0.00000     3.18120   
    98. RY*(  15) C   4                  0.00000     0.96942   
    99. RY*(  16) C   4                  0.00000     3.35208   
   100. RY*(  17) C   4                  0.00000     1.93639   
   101. RY*(  18) C   4                  0.00000     3.27078   
   102. RY*(  19) C   4                  0.00000     1.40313   
   103. RY*(  20) C   4                  0.00000     3.12860   
   104. RY*(  21) C   4                  0.00000     0.54986   
   105. RY*(  22) C   4                  0.00000     3.32331   
   106. RY*(   1) H   5                  0.00029     0.71748   
   107. RY*(   2) H   5                  0.00006     2.22952   
   108. RY*(   3) H   5                  0.00006     1.88574   
   109. RY*(   4) H   5                  0.00006     1.95720   
   110. RY*(   5) H   5                  0.00001     2.52174   
   111. RY*(   1) H   6                  0.00016     0.92120   
   112. RY*(   2) H   6                  0.00006     1.88422   
   113. RY*(   3) H   6                  0.00005     1.95374   
   114. RY*(   4) H   6                  0.00005     2.26139   
   115. RY*(   5) H   6                  0.00000     2.23939   
   116. RY*(   1) H   7                  0.00029     0.71748   
   117. RY*(   2) H   7                  0.00006     2.22952   
   118. RY*(   3) H   7                  0.00006     1.88574   
   119. RY*(   4) H   7                  0.00006     1.95720   
   120. RY*(   5) H   7                  0.00001     2.52174   
   121. BD*(   1) C   1 - F   2          0.02454     0.25975   
   122. BD*(   1) C   1 - F   3          0.02454     0.25975   
   123. BD*(   1) C   1 - C   4          0.00980     0.38211   
   124. BD*(   1) C   4 - H   5          0.00229     0.37369   
   125. BD*(   1) C   4 - H   6          0.00121     0.36827   
   126. BD*(   1) C   4 - H   7          0.00229     0.37369   
       -------------------------------
              Total Lewis   15.75005  ( 98.4378%)
        Valence non-Lewis    0.23192  (  1.4495%)
        Rydberg non-Lewis    0.01802  (  0.1126%)
       -------------------------------
            Total unit  1   16.00000  (100.0000%)
           Charge unit  1    0.50000
 Leave Link  607 at Wed Sep  5 16:47:34 2018, MaxMem=   805306368 cpu:               8.0 elap:               1.1
 (Enter /home/g16/l9999.exe)
 1\1\GINC-PC13\Stability\UB3LYP\6-311+G(2d,p)\C2H3F2(2)\MASKER\05-Sep-2
 018\0\\#p b3lyp/6-311+g(2d,p) pop=(full,nboread) stable=opt g09def\\CF
 M-c1-1sp 1\\0,2\C,0,-0.304083,0.051038,0.\F,0,0.057338,0.738395,-1.094
 508\F,0,0.057338,0.738395,1.094508\C,0,0.057338,-1.390114,0.\H,0,-0.35
 011,-1.871703,-0.888133\H,0,1.148601,-1.513238,0.\H,0,-0.35011,-1.8717
 03,0.888133\\Version=ES64L-G16RevA.03\State=2-A'\HF=-277.740196\S2=0.7
 52296\S2-1=0.\S2A=0.750004\RMSD=4.030e-09\Dipole=0.0287446,-0.8444933,
 0.\Quadrupole=0.1458194,0.8584955,-1.0043149,-0.0599089,0.,0.\PG=CS [S
 G(C2H1),X(H2F2)]\\@


 FROM AN ANONYMOUS WRITER, ON PERSPECTIVE:

 MAN, DESPITE HIS ARTISTIC PRETENSIONS, HIS SOPHISTICATION AND MANY 
 ACCOMPLISHMENTS, OWES THE FACT OF HIS EXISTENCE TO A SIX-INCH LAYER OF 
 TOPSOIL AND THE FACT THAT IT RAINS.
 Job cpu time:       0 days  0 hours  1 minutes 30.4 seconds.
 Elapsed time:       0 days  0 hours  0 minutes 11.6 seconds.
 File lengths (MBytes):  RWF=    103 Int=      0 D2E=      0 Chk=      3 Scr=      1
 Normal termination of Gaussian 16 at Wed Sep  5 16:47:35 2018.
