 Entering Gaussian System, Link 0=g16
 Input=CH3-c1-1sp.gjf
 Output=CH3-c1-1sp.log
 Initial command:
 /home/g16/l1.exe "/home/masker/scratch/Gau-19211.inp" -scrdir="/home/masker/scratch/"
 Entering Link 1 = /home/g16/l1.exe PID=     19212.
  
 Copyright (c) 1988,1990,1992,1993,1995,1998,2003,2009,2016,
            Gaussian, Inc.  All Rights Reserved.
  
 This is part of the Gaussian(R) 16 program.  It is based on
 the Gaussian(R) 09 system (copyright 2009, Gaussian, Inc.),
 the Gaussian(R) 03 system (copyright 2003, Gaussian, Inc.),
 the Gaussian(R) 98 system (copyright 1998, Gaussian, Inc.),
 the Gaussian(R) 94 system (copyright 1995, Gaussian, Inc.),
 the Gaussian 92(TM) system (copyright 1992, Gaussian, Inc.),
 the Gaussian 90(TM) system (copyright 1990, Gaussian, Inc.),
 the Gaussian 88(TM) system (copyright 1988, Gaussian, Inc.),
 the Gaussian 86(TM) system (copyright 1986, Carnegie Mellon
 University), and the Gaussian 82(TM) system (copyright 1983,
 Carnegie Mellon University). Gaussian is a federally registered
 trademark of Gaussian, Inc.
  
 This software contains proprietary and confidential information,
 including trade secrets, belonging to Gaussian, Inc.
  
 This software is provided under written license and may be
 used, copied, transmitted, or stored only in accord with that
 written license.
  
 The following legend is applicable only to US Government
 contracts under FAR:
  
                    RESTRICTED RIGHTS LEGEND
  
 Use, reproduction and disclosure by the US Government is
 subject to restrictions as set forth in subparagraphs (a)
 and (c) of the Commercial Computer Software - Restricted
 Rights clause in FAR 52.227-19.
  
 Gaussian, Inc.
 340 Quinnipiac St., Bldg. 40, Wallingford CT 06492
  
  
 ---------------------------------------------------------------
 Warning -- This program may not be used in any manner that
 competes with the business of Gaussian, Inc. or will provide
 assistance to any competitor of Gaussian, Inc.  The licensee
 of this program is prohibited from giving any competitor of
 Gaussian, Inc. access to this program.  By using this program,
 the user acknowledges that Gaussian, Inc. is engaged in the
 business of creating and licensing software in the field of
 computational chemistry and represents and warrants to the
 licensee that it is not a competitor of Gaussian, Inc. and that
 it will not use this program in any manner prohibited above.
 ---------------------------------------------------------------
  

 Cite this work as:
 Gaussian 16, Revision A.03,
 M. J. Frisch, G. W. Trucks, H. B. Schlegel, G. E. Scuseria, 
 M. A. Robb, J. R. Cheeseman, G. Scalmani, V. Barone, 
 G. A. Petersson, H. Nakatsuji, X. Li, M. Caricato, A. V. Marenich, 
 J. Bloino, B. G. Janesko, R. Gomperts, B. Mennucci, H. P. Hratchian, 
 J. V. Ortiz, A. F. Izmaylov, J. L. Sonnenberg, D. Williams-Young, 
 F. Ding, F. Lipparini, F. Egidi, J. Goings, B. Peng, A. Petrone, 
 T. Henderson, D. Ranasinghe, V. G. Zakrzewski, J. Gao, N. Rega, 
 G. Zheng, W. Liang, M. Hada, M. Ehara, K. Toyota, R. Fukuda, 
 J. Hasegawa, M. Ishida, T. Nakajima, Y. Honda, O. Kitao, H. Nakai, 
 T. Vreven, K. Throssell, J. A. Montgomery, Jr., J. E. Peralta, 
 F. Ogliaro, M. J. Bearpark, J. J. Heyd, E. N. Brothers, K. N. Kudin, 
 V. N. Staroverov, T. A. Keith, R. Kobayashi, J. Normand, 
 K. Raghavachari, A. P. Rendell, J. C. Burant, S. S. Iyengar, 
 J. Tomasi, M. Cossi, J. M. Millam, M. Klene, C. Adamo, R. Cammi, 
 J. W. Ochterski, R. L. Martin, K. Morokuma, O. Farkas, 
 J. B. Foresman, and D. J. Fox, Gaussian, Inc., Wallingford CT, 2016.
 
 ******************************************
 Gaussian 16:  ES64L-G16RevA.03 25-Dec-2016
                 5-Sep-2018 
 ******************************************
 %nprocshared=8
 Will use up to    8 processors via shared memory.
 %mem=6GB
 %chk=CH3-c1-1sp.chk
 -----------------------------------------------------------
 #p b3lyp/6-311+g(2d,p) pop=(full,nboread) stable=opt g09def
 -----------------------------------------------------------
 1/38=1,158=3,167=1,172=1/1;
 2/12=2,17=6,18=5,40=1/2;
 3/5=4,6=6,7=112,11=2,25=1,27=10,30=1,74=-5,75=-4,158=3/1,2,3;
 4/60=-1/1;
 5/5=2,38=5,87=10/2;
 6/7=3,28=1,40=2,87=10/1,7;
 8/6=1,10=90,11=11,87=10/1;
 9/8=-3,42=1,46=1,87=10/14;
 5/5=2,8=3,17=40,38=5,87=10/8(-2);
 6/7=3,28=1,40=2,87=10/1,7;
 99/5=1,9=1/99;
 Using 2006 physical constants.
 Leave Link    1 at Wed Sep  5 16:41:08 2018, MaxMem=   805306368 cpu:               0.4 elap:               0.0
 (Enter /home/g16/l101.exe)
 ------------
 CH3-c1-1sp 1
 ------------
 Symbolic Z-matrix:
 Charge =  0 Multiplicity = 2
 C                     0.        0.        0.00002 
 H                     0.        1.07963  -0.00003 
 H                    -0.93499  -0.53981  -0.00003 
 H                     0.93499  -0.53981  -0.00003 
 
 ITRead=  0  0  0  0
 MicOpt= -1 -1 -1 -1
 NAtoms=      4 NQM=        4 NQMF=       0 NMMI=      0 NMMIF=      0
                NMic=       0 NMicF=      0.
                    Isotopes and Nuclear Properties:
 (Nuclear quadrupole moments (NQMom) in fm**2, nuclear magnetic moments (NMagM)
  in nuclear magnetons)

  Atom         1           2           3           4
 IAtWgt=          12           1           1           1
 AtmWgt=  12.0000000   1.0078250   1.0078250   1.0078250
 NucSpn=           0           1           1           1
 AtZEff=  -0.0000000  -0.0000000  -0.0000000  -0.0000000
 NQMom=    0.0000000   0.0000000   0.0000000   0.0000000
 NMagM=    0.0000000   2.7928460   2.7928460   2.7928460
 AtZNuc=   6.0000000   1.0000000   1.0000000   1.0000000
 Leave Link  101 at Wed Sep  5 16:41:08 2018, MaxMem=   805306368 cpu:               0.3 elap:               0.0
 (Enter /home/g16/l202.exe)
                          Input orientation:                          
 ---------------------------------------------------------------------
 Center     Atomic      Atomic             Coordinates (Angstroms)
 Number     Number       Type             X           Y           Z
 ---------------------------------------------------------------------
      1          6           0        0.000000    0.000000    0.000016
      2          1           0        0.000000    1.079628   -0.000032
      3          1           0       -0.934985   -0.539814   -0.000032
      4          1           0        0.934985   -0.539814   -0.000032
 ---------------------------------------------------------------------
                    Distance matrix (angstroms):
                    1          2          3          4
     1  C    0.000000
     2  H    1.079628   0.000000
     3  H    1.079628   1.869970   0.000000
     4  H    1.079628   1.869970   1.869970   0.000000
 Stoichiometry    CH3(2)
 Framework group  C3V[C3(C),3SGV(H)]
 Deg. of freedom     2
 Full point group                 C3V     NOp   6
 Largest Abelian subgroup         CS      NOp   2
 Largest concise Abelian subgroup CS      NOp   2
                         Standard orientation:                         
 ---------------------------------------------------------------------
 Center     Atomic      Atomic             Coordinates (Angstroms)
 Number     Number       Type             X           Y           Z
 ---------------------------------------------------------------------
      1          6           0        0.000000    0.000000    0.000016
      2          1           0        0.000000    1.079628   -0.000032
      3          1           0       -0.934985   -0.539814   -0.000032
      4          1           0        0.934985   -0.539814   -0.000032
 ---------------------------------------------------------------------
 Rotational constants (GHZ):         286.8088272         286.8088272         143.4044141
 Leave Link  202 at Wed Sep  5 16:41:08 2018, MaxMem=   805306368 cpu:               0.0 elap:               0.0
 (Enter /home/g16/l301.exe)
 Standard basis: 6-311+G(2d,p) (5D, 7F)
 Ernie: Thresh=  0.10000D-02 Tol=  0.10000D-05 Strict=F.
 There are    32 symmetry adapted cartesian basis functions of A'  symmetry.
 There are    15 symmetry adapted cartesian basis functions of A"  symmetry.
 There are    30 symmetry adapted basis functions of A'  symmetry.
 There are    15 symmetry adapted basis functions of A"  symmetry.
    45 basis functions,    66 primitive gaussians,    47 cartesian basis functions
     5 alpha electrons        4 beta electrons
       nuclear repulsion energy         9.6716198141 Hartrees.
 IExCor=  402 DFT=T Ex+Corr=B3LYP ExCW=0 ScaHFX=  0.200000
 ScaDFX=  0.800000  0.720000  1.000000  0.810000 ScalE2=  1.000000  1.000000
 IRadAn=      4 IRanWt=     -1 IRanGd=            0 ICorTp=0 IEmpDi=  4
 NAtoms=    4 NActive=    4 NUniq=    2 SFac= 4.00D+00 NAtFMM=   60 NAOKFM=F Big=F
 Integral buffers will be    131072 words long.
 Raffenetti 2 integral format.
 Two-electron integral symmetry is turned on.
 Leave Link  301 at Wed Sep  5 16:41:08 2018, MaxMem=   805306368 cpu:               0.1 elap:               0.0
 (Enter /home/g16/l302.exe)
 NPDir=0 NMtPBC=     1 NCelOv=     1 NCel=       1 NClECP=     1 NCelD=      1
         NCelK=      1 NCelE2=     1 NClLst=     1 CellRange=     0.0.
 One-electron integrals computed using PRISM.
 One-electron integral symmetry used in STVInt
 NBasis=    45 RedAO= T EigKep=  1.19D-02  NBF=    30    15
 NBsUse=    45 1.00D-06 EigRej= -1.00D+00 NBFU=    30    15
 Precomputing XC quadrature grid using
 IXCGrd= 4 IRadAn=           4 IRanWt=          -1 IRanGd=           0 AccXCQ= 1.00D-10.
 Generated NRdTot=       0 NPtTot=           0 NUsed=           0 NTot=          32
 NSgBfM=    47    47    47    47    47 MxSgAt=     4 MxSgA2=     4.
 Leave Link  302 at Wed Sep  5 16:41:08 2018, MaxMem=   805306368 cpu:               0.5 elap:               0.1
 (Enter /home/g16/l303.exe)
 DipDrv:  MaxL=1.
 Leave Link  303 at Wed Sep  5 16:41:08 2018, MaxMem=   805306368 cpu:               0.1 elap:               0.0
 (Enter /home/g16/l401.exe)
 ExpMin= 4.38D-02 ExpMax= 4.56D+03 ExpMxC= 6.82D+02 IAcc=2 IRadAn=         4 AccDes= 0.00D+00
 Harris functional with IExCor=  402 and IRadAn=      -1 diagonalized for initial guess.
 HarFok:  IExCor=  402 AccDes= 0.00D+00 IRadAn=        -1 IDoV= 1 UseB2=F ITyADJ=14
 ICtDFT=  3500011 ScaDFX=  1.000000  1.000000  1.000000  1.000000
 FoFCou: FMM=F IPFlag=           0 FMFlag=      100000 FMFlg1=           0
         NFxFlg=           0 DoJE=T BraDBF=F KetDBF=T FulRan=T
         wScrn=  0.000000 ICntrl=       500 IOpCl=  0 I1Cent=   200000004 NGrid=           0
         NMat0=    1 NMatS0=      1 NMatT0=    0 NMatD0=    1 NMtDS0=    0 NMtDT0=    0
 Petite list used in FoFCou.
 Harris En= -39.8532470292016    
 JPrj=0 DoOrth=F DoCkMO=F.
 Initial guess orbital symmetries:
 Alpha Orbitals:
       Occupied  (A1) (A1) (E) (E) (A1)
       Virtual   (A1) (E) (E) (A1) (E) (E) (A1) (E) (E) (A1) (A1)
                 (E) (E) (E) (E) (A1) (A1) (E) (E) (A2) (A1) (E)
                 (E) (E) (E) (A1) (E) (E) (E) (E) (A1) (A1) (E)
                 (E) (E) (E) (A1) (E) (E) (A1)
 Beta  Orbitals:
       Occupied  (A1) (A1) (E) (E)
       Virtual   (A1) (A1) (E) (E) (A1) (E) (E) (A1) (E) (E) (A1)
                 (A1) (E) (E) (E) (E) (A1) (A1) (E) (E) (A2) (A1)
                 (E) (E) (E) (E) (A1) (E) (E) (E) (E) (A1) (A1)
                 (E) (E) (E) (E) (A1) (E) (E) (A1)
 The electronic state of the initial guess is 2-A1.
 Initial guess <Sx>= 0.0000 <Sy>= 0.0000 <Sz>= 0.5000 <S**2>= 0.7500 S= 0.5000
 Leave Link  401 at Wed Sep  5 16:41:08 2018, MaxMem=   805306368 cpu:               0.6 elap:               0.1
 (Enter /home/g16/l502.exe)
 Keep R1 and R2 ints in memory in symmetry-blocked form, NReq=7467686.
 FoFCou: FMM=F IPFlag=           0 FMFlag=           0 FMFlg1=           0
         NFxFlg=           0 DoJE=F BraDBF=F KetDBF=F FulRan=T
         wScrn=  0.000000 ICntrl=       600 IOpCl=  0 I1Cent=           0 NGrid=           0
         NMat0=    1 NMatS0=   1035 NMatT0=    0 NMatD0=    1 NMtDS0=    0 NMtDT0=    0
 Petite list used in FoFCou.
 UHF open shell SCF:
 Using DIIS extrapolation, IDIIS=  1040.
 NGot=   805306368 LenX=   804752406 LenY=   804749756
 Requested convergence on RMS density matrix=1.00D-08 within 128 cycles.
 Requested convergence on MAX density matrix=1.00D-06.
 Requested convergence on             energy=1.00D-06.
 No special actions if energy rises.

 Cycle   1  Pass 1  IDiag  1:
 E= -39.8080841180195    
 DIIS: error= 4.83D-02 at cycle   1 NSaved=   1.
 NSaved= 1 IEnMin= 1 EnMin= -39.8080841180195     IErMin= 1 ErrMin= 4.83D-02
 ErrMax= 4.83D-02  0.00D+00 EMaxC= 1.00D-01 BMatC= 1.85D-01 BMatP= 1.85D-01
 IDIUse=3 WtCom= 5.17D-01 WtEn= 4.83D-01
 Coeff-Com:  0.100D+01
 Coeff-En:   0.100D+01
 Coeff:      0.100D+01
 Gap=     0.173 Goal=   None    Shift=    0.000
 Gap=     0.367 Goal=   None    Shift=    0.000
 GapD=    0.173 DampG=1.000 DampE=0.500 DampFc=0.5000 IDamp=-1.
 Damping current iteration by 5.00D-01
 RMSDP=5.79D-03 MaxDP=1.26D-01              OVMax= 1.91D-01

 Cycle   2  Pass 1  IDiag  1:
 E= -39.8306170520110     Delta-E=       -0.022532933991 Rises=F Damp=T
 DIIS: error= 9.24D-03 at cycle   2 NSaved=   2.
 NSaved= 2 IEnMin= 2 EnMin= -39.8306170520110     IErMin= 2 ErrMin= 9.24D-03
 ErrMax= 9.24D-03  0.00D+00 EMaxC= 1.00D-01 BMatC= 6.35D-03 BMatP= 1.85D-01
 IDIUse=3 WtCom= 9.08D-01 WtEn= 9.24D-02
 Coeff-Com:  0.106D-01 0.989D+00
 Coeff-En:   0.445D-01 0.956D+00
 Coeff:      0.138D-01 0.986D+00
 Gap=     0.247 Goal=   None    Shift=    0.000
 Gap=     0.343 Goal=   None    Shift=    0.000
 RMSDP=8.99D-04 MaxDP=1.23D-02 DE=-2.25D-02 OVMax= 1.20D-01

 Cycle   3  Pass 1  IDiag  1:
 E= -39.8559807821212     Delta-E=       -0.025363730110 Rises=F Damp=F
 DIIS: error= 2.62D-03 at cycle   3 NSaved=   3.
 NSaved= 3 IEnMin= 3 EnMin= -39.8559807821212     IErMin= 3 ErrMin= 2.62D-03
 ErrMax= 2.62D-03  0.00D+00 EMaxC= 1.00D-01 BMatC= 4.11D-04 BMatP= 6.35D-03
 IDIUse=3 WtCom= 9.74D-01 WtEn= 2.62D-02
 Coeff-Com: -0.407D-01 0.665D-01 0.974D+00
 Coeff-En:   0.000D+00 0.000D+00 0.100D+01
 Coeff:     -0.396D-01 0.648D-01 0.975D+00
 Gap=     0.251 Goal=   None    Shift=    0.000
 Gap=     0.337 Goal=   None    Shift=    0.000
 RMSDP=1.94D-04 MaxDP=4.57D-03 DE=-2.54D-02 OVMax= 5.32D-03

 Cycle   4  Pass 1  IDiag  1:
 E= -39.8561137440465     Delta-E=       -0.000132961925 Rises=F Damp=F
 DIIS: error= 3.15D-04 at cycle   4 NSaved=   4.
 NSaved= 4 IEnMin= 4 EnMin= -39.8561137440465     IErMin= 4 ErrMin= 3.15D-04
 ErrMax= 3.15D-04  0.00D+00 EMaxC= 1.00D-01 BMatC= 8.66D-06 BMatP= 4.11D-04
 IDIUse=3 WtCom= 9.97D-01 WtEn= 3.15D-03
 Coeff-Com:  0.910D-02-0.299D-01-0.254D+00 0.128D+01
 Coeff-En:   0.000D+00 0.000D+00 0.000D+00 0.100D+01
 Coeff:      0.907D-02-0.299D-01-0.253D+00 0.127D+01
 Gap=     0.252 Goal=   None    Shift=    0.000
 Gap=     0.337 Goal=   None    Shift=    0.000
 RMSDP=6.17D-05 MaxDP=1.12D-03 DE=-1.33D-04 OVMax= 1.60D-03

 Cycle   5  Pass 1  IDiag  1:
 E= -39.8561205859285     Delta-E=       -0.000006841882 Rises=F Damp=F
 DIIS: error= 7.90D-05 at cycle   5 NSaved=   5.
 NSaved= 5 IEnMin= 5 EnMin= -39.8561205859285     IErMin= 5 ErrMin= 7.90D-05
 ErrMax= 7.90D-05  0.00D+00 EMaxC= 1.00D-01 BMatC= 3.93D-07 BMatP= 8.66D-06
 IDIUse=1 WtCom= 1.00D+00 WtEn= 0.00D+00
 Coeff-Com:  0.899D-03 0.235D-02-0.340D-02-0.214D+00 0.121D+01
 Coeff:      0.899D-03 0.235D-02-0.340D-02-0.214D+00 0.121D+01
 Gap=     0.252 Goal=   None    Shift=    0.000
 Gap=     0.337 Goal=   None    Shift=    0.000
 RMSDP=1.22D-05 MaxDP=1.97D-04 DE=-6.84D-06 OVMax= 3.13D-04

 Cycle   6  Pass 1  IDiag  1:
 E= -39.8561208774919     Delta-E=       -0.000000291563 Rises=F Damp=F
 DIIS: error= 1.33D-05 at cycle   6 NSaved=   6.
 NSaved= 6 IEnMin= 6 EnMin= -39.8561208774919     IErMin= 6 ErrMin= 1.33D-05
 ErrMax= 1.33D-05  0.00D+00 EMaxC= 1.00D-01 BMatC= 7.91D-09 BMatP= 3.93D-07
 IDIUse=1 WtCom= 1.00D+00 WtEn= 0.00D+00
 Coeff-Com: -0.441D-03 0.791D-03 0.733D-02-0.198D-01-0.949D-01 0.111D+01
 Coeff:     -0.441D-03 0.791D-03 0.733D-02-0.198D-01-0.949D-01 0.111D+01
 Gap=     0.252 Goal=   None    Shift=    0.000
 Gap=     0.337 Goal=   None    Shift=    0.000
 RMSDP=1.55D-06 MaxDP=2.01D-05 DE=-2.92D-07 OVMax= 4.82D-05

 Cycle   7  Pass 1  IDiag  1:
 E= -39.8561208826332     Delta-E=       -0.000000005141 Rises=F Damp=F
 DIIS: error= 2.36D-06 at cycle   7 NSaved=   7.
 NSaved= 7 IEnMin= 7 EnMin= -39.8561208826332     IErMin= 7 ErrMin= 2.36D-06
 ErrMax= 2.36D-06  0.00D+00 EMaxC= 1.00D-01 BMatC= 2.17D-10 BMatP= 7.91D-09
 IDIUse=1 WtCom= 1.00D+00 WtEn= 0.00D+00
 Coeff-Com:  0.455D-04-0.949D-04-0.144D-03 0.207D-02-0.304D-02-0.104D+00
 Coeff-Com:  0.111D+01
 Coeff:      0.455D-04-0.949D-04-0.144D-03 0.207D-02-0.304D-02-0.104D+00
 Coeff:      0.111D+01
 Gap=     0.252 Goal=   None    Shift=    0.000
 Gap=     0.337 Goal=   None    Shift=    0.000
 RMSDP=1.88D-07 MaxDP=2.58D-06 DE=-5.14D-09 OVMax= 6.12D-06

 Cycle   8  Pass 1  IDiag  1:
 E= -39.8561208827162     Delta-E=       -0.000000000083 Rises=F Damp=F
 DIIS: error= 1.44D-07 at cycle   8 NSaved=   8.
 NSaved= 8 IEnMin= 8 EnMin= -39.8561208827162     IErMin= 8 ErrMin= 1.44D-07
 ErrMax= 1.44D-07  0.00D+00 EMaxC= 1.00D-01 BMatC= 5.15D-13 BMatP= 2.17D-10
 IDIUse=1 WtCom= 1.00D+00 WtEn= 0.00D+00
 Coeff-Com:  0.162D-05-0.404D-05-0.701D-04 0.265D-03 0.106D-03-0.470D-02
 Coeff-Com: -0.463D-01 0.105D+01
 Coeff:      0.162D-05-0.404D-05-0.701D-04 0.265D-03 0.106D-03-0.470D-02
 Coeff:     -0.463D-01 0.105D+01
 Gap=     0.252 Goal=   None    Shift=    0.000
 Gap=     0.337 Goal=   None    Shift=    0.000
 RMSDP=1.50D-08 MaxDP=2.86D-07 DE=-8.30D-11 OVMax= 6.16D-07

 Cycle   9  Pass 1  IDiag  1:
 E= -39.8561208827165     Delta-E=       -0.000000000000 Rises=F Damp=F
 DIIS: error= 2.17D-08 at cycle   9 NSaved=   9.
 NSaved= 9 IEnMin= 9 EnMin= -39.8561208827165     IErMin= 9 ErrMin= 2.17D-08
 ErrMax= 2.17D-08  0.00D+00 EMaxC= 1.00D-01 BMatC= 2.68D-14 BMatP= 5.15D-13
 IDIUse=1 WtCom= 1.00D+00 WtEn= 0.00D+00
 Coeff-Com: -0.472D-07 0.284D-07-0.123D-04 0.309D-04 0.622D-04 0.625D-04
 Coeff-Com: -0.182D-01 0.181D+00 0.837D+00
 Coeff:     -0.472D-07 0.284D-07-0.123D-04 0.309D-04 0.622D-04 0.625D-04
 Coeff:     -0.182D-01 0.181D+00 0.837D+00
 Gap=     0.252 Goal=   None    Shift=    0.000
 Gap=     0.337 Goal=   None    Shift=    0.000
 RMSDP=1.86D-09 MaxDP=3.30D-08 DE=-3.34D-13 OVMax= 6.16D-08

 SCF Done:  E(UB3LYP) =  -39.8561208827     A.U. after    9 cycles
            NFock=  9  Conv=0.19D-08     -V/T= 2.0053
 <Sx>= 0.0000 <Sy>= 0.0000 <Sz>= 0.5000 <S**2>= 0.7535 S= 0.5018
 <L.S>=  0.00000000000    
 KE= 3.964590838404D+01 PE=-1.112927856864D+02 EE= 2.211913660552D+01
 Annihilation of the first spin contaminant:
 S**2 before annihilation     0.7535,   after     0.7500
 Leave Link  502 at Wed Sep  5 16:41:08 2018, MaxMem=   805306368 cpu:               1.3 elap:               0.2
 (Enter /home/g16/l601.exe)
 Copying SCF densities to generalized density rwf, IOpCl= 1 IROHF=0.

 **********************************************************************

            Population analysis using the SCF density.

 **********************************************************************

 Orbital symmetries:
 Alpha Orbitals:
       Occupied  (A1) (A1) (E) (E) (A1)
       Virtual   (A1) (E) (E) (A1) (A1) (E) (E) (E) (E) (A1) (A1)
                 (E) (E) (E) (E) (A1) (A1) (E) (E) (A2) (A1) (E)
                 (E) (E) (E) (A1) (E) (E) (E) (E) (A1) (A1) (E)
                 (E) (E) (E) (A1) (E) (E) (A1)
 Beta  Orbitals:
       Occupied  (A1) (A1) (E) (E)
       Virtual   (A1) (A1) (E) (E) (A1) (E) (E) (A1) (E) (E) (A1)
                 (A1) (E) (E) (E) (E) (A1) (A1) (E) (E) (A2) (A1)
                 (E) (E) (E) (E) (A1) (E) (E) (E) (E) (A1) (A1)
                 (E) (E) (E) (E) (A1) (E) (E) (A1)
 The electronic state is 2-A1.
 Alpha  occ. eigenvalues --  -10.18400  -0.69126  -0.42680  -0.42680  -0.23748
 Alpha virt. eigenvalues --    0.01446   0.05417   0.05417   0.07127   0.15213
 Alpha virt. eigenvalues --    0.15398   0.15398   0.40322   0.40322   0.44300
 Alpha virt. eigenvalues --    0.53016   0.58391   0.58391   0.60296   0.60296
 Alpha virt. eigenvalues --    0.70651   0.87773   0.98658   0.98658   1.39411
 Alpha virt. eigenvalues --    1.64892   1.77007   1.77007   2.05555   2.05555
 Alpha virt. eigenvalues --    2.14720   2.25303   2.25303   2.57404   2.57404
 Alpha virt. eigenvalues --    2.71590   2.78626   3.02818   3.02818   3.21003
 Alpha virt. eigenvalues --    3.21003   3.55897   4.10848   4.10848  23.85360
  Beta  occ. eigenvalues --  -10.16985  -0.65187  -0.41721  -0.41721
  Beta virt. eigenvalues --   -0.08004   0.01967   0.05412   0.05412   0.09298
  Beta virt. eigenvalues --    0.15651   0.15651   0.16634   0.40666   0.40666
  Beta virt. eigenvalues --    0.46681   0.59074   0.59171   0.59171   0.63923
  Beta virt. eigenvalues --    0.63923   0.73100   0.90992   0.99547   0.99547
  Beta virt. eigenvalues --    1.39031   1.66100   1.77962   1.77962   2.05335
  Beta virt. eigenvalues --    2.05335   2.15944   2.25652   2.25652   2.57433
  Beta virt. eigenvalues --    2.57433   2.79144   2.80254   3.04651   3.04651
  Beta virt. eigenvalues --    3.28094   3.28094   3.63039   4.12438   4.12438
  Beta virt. eigenvalues --   23.87015
     Alpha Molecular Orbital Coefficients:
                           1         2         3         4         5
                        (A1)--O   (A1)--O   (E)--O    (E)--O    (A1)--O
     Eigenvalues --   -10.18400  -0.69126  -0.42680  -0.42680  -0.23748
   1 1   C  1S          0.56262  -0.11326   0.00000   0.00000  -0.00000
   2        2S          0.46343  -0.17673   0.00000   0.00000  -0.00001
   3        2PX         0.00000   0.00000   0.21336   0.00000   0.00000
   4        2PY         0.00000   0.00000   0.00000   0.21336   0.00000
   5        2PZ         0.00000  -0.00000   0.00000  -0.00000   0.27066
   6        3S          0.01915   0.47322   0.00000   0.00000   0.00002
   7        3PX         0.00000   0.00000   0.28961   0.00000   0.00000
   8        3PY         0.00000   0.00000   0.00000   0.28961  -0.00000
   9        3PZ        -0.00000  -0.00000   0.00000   0.00000   0.41709
  10        4S         -0.00483   0.31085   0.00000  -0.00000   0.00004
  11        4PX         0.00000   0.00000   0.18480   0.00000   0.00000
  12        4PY         0.00000  -0.00000   0.00000   0.18480   0.00000
  13        4PZ        -0.00000  -0.00000   0.00000  -0.00000   0.44570
  14        5S         -0.00200   0.01715   0.00000   0.00000   0.00000
  15        5PX         0.00000   0.00000   0.01307   0.00000   0.00000
  16        5PY        -0.00000  -0.00000   0.00000   0.01307   0.00000
  17        5PZ         0.00000  -0.00000   0.00000   0.00000   0.08876
  18        6D 0       -0.00045  -0.00242   0.00000  -0.00000   0.00000
  19        6D+1        0.00000   0.00000  -0.00000   0.00000   0.00000
  20        6D-1       -0.00000  -0.00000   0.00000  -0.00000   0.00000
  21        6D+2       -0.00000  -0.00000   0.00000  -0.01352  -0.00000
  22        6D-2        0.00000   0.00000  -0.01352   0.00000   0.00000
  23        7D 0       -0.00166   0.00756   0.00000   0.00000  -0.00000
  24        7D+1        0.00000   0.00000  -0.00000   0.00000   0.00000
  25        7D-1       -0.00000   0.00000   0.00000  -0.00000   0.00000
  26        7D+2       -0.00000   0.00000   0.00000  -0.00368  -0.00000
  27        7D-2        0.00000   0.00000  -0.00368   0.00000   0.00000
  28 2   H  1S          0.00033   0.09316   0.00000   0.17529  -0.00001
  29        2S         -0.00452   0.11169   0.00000   0.24889  -0.00001
  30        3S          0.00303   0.00101   0.00000   0.08639  -0.00001
  31        4PX         0.00000   0.00000   0.01050   0.00000   0.00000
  32        4PY         0.00233  -0.01739   0.00000  -0.02091   0.00000
  33        4PZ        -0.00000   0.00000   0.00000   0.00000   0.02132
  34 3   H  1S          0.00033   0.09316  -0.15180  -0.08764  -0.00001
  35        2S         -0.00452   0.11169  -0.21555  -0.12445  -0.00001
  36        3S          0.00303   0.00101  -0.07482  -0.04319  -0.00001
  37        4PX        -0.00202   0.01506  -0.01306  -0.01360  -0.00000
  38        4PY        -0.00117   0.00869  -0.01360   0.00264  -0.00000
  39        4PZ        -0.00000   0.00000  -0.00000  -0.00000   0.02132
  40 4   H  1S          0.00033   0.09316   0.15180  -0.08764  -0.00001
  41        2S         -0.00452   0.11169   0.21555  -0.12445  -0.00001
  42        3S          0.00303   0.00101   0.07482  -0.04319  -0.00001
  43        4PX         0.00202  -0.01506  -0.01306   0.01360   0.00000
  44        4PY        -0.00117   0.00869   0.01360   0.00264  -0.00000
  45        4PZ        -0.00000   0.00000   0.00000  -0.00000   0.02132
                           6         7         8         9        10
                        (A1)--V   (E)--V    (E)--V    (A1)--V   (A1)--V
     Eigenvalues --     0.01446   0.05417   0.05417   0.07127   0.15213
   1 1   C  1S          0.04552   0.00000   0.00000   0.00000  -0.05381
   2        2S          0.07454   0.00000   0.00000   0.00000  -0.08442
   3        2PX         0.00000  -0.07720   0.00000   0.00000   0.00000
   4        2PY         0.00000   0.00000  -0.07720   0.00000  -0.00000
   5        2PZ         0.00001   0.00000   0.00000  -0.12364  -0.00001
   6        3S         -0.21474   0.00000   0.00000  -0.00001   0.13800
   7        3PX         0.00000  -0.14669   0.00000   0.00000   0.00000
   8        3PY         0.00000   0.00000  -0.14669  -0.00000  -0.00000
   9        3PZ         0.00001   0.00000   0.00000  -0.14906  -0.00001
  10        4S         -0.73010   0.00000  -0.00000  -0.00007   2.47264
  11        4PX         0.00000  -0.23628   0.00000   0.00000   0.00000
  12        4PY         0.00000   0.00000  -0.23628   0.00000  -0.00000
  13        4PZ         0.00001   0.00000   0.00000  -0.44148  -0.00009
  14        5S          1.77325   0.00000  -0.00000   0.00000   2.56465
  15        5PX         0.00000   1.37851   0.00000   0.00000   0.00000
  16        5PY        -0.00000   0.00000   1.37851   0.00000  -0.00000
  17        5PZ        -0.00004   0.00000  -0.00000   1.19103  -0.00005
  18        6D 0        0.00012   0.00000  -0.00000  -0.00000   0.01822
  19        6D+1        0.00000   0.00000   0.00000   0.00000   0.00000
  20        6D-1        0.00000   0.00000   0.00000  -0.00000  -0.00000
  21        6D+2       -0.00000   0.00000   0.00513   0.00000  -0.00000
  22        6D-2        0.00000   0.00513   0.00000   0.00000   0.00000
  23        7D 0        0.01730   0.00000   0.00000  -0.00000   0.04105
  24        7D+1        0.00000   0.00000   0.00000   0.00000   0.00000
  25        7D-1       -0.00000   0.00000   0.00000  -0.00000   0.00000
  26        7D+2       -0.00000   0.00000   0.05795  -0.00000   0.00000
  27        7D-2        0.00000   0.05795   0.00000   0.00000   0.00000
  28 2   H  1S         -0.00600   0.00000  -0.04156   0.00000  -0.07452
  29        2S          0.11415   0.00000   0.10882   0.00000  -0.15622
  30        3S         -0.22968   0.00000  -0.49861   0.00003  -1.85323
  31        4PX         0.00000   0.00011   0.00000   0.00000   0.00000
  32        4PY         0.00767   0.00000   0.00201  -0.00000  -0.00522
  33        4PZ         0.00000   0.00000   0.00000   0.00071  -0.00000
  34 3   H  1S         -0.00600   0.03600   0.02078   0.00000  -0.07452
  35        2S          0.11415  -0.09424  -0.05441   0.00000  -0.15622
  36        3S         -0.22968   0.43181   0.24930   0.00003  -1.85323
  37        4PX        -0.00664   0.00153   0.00082   0.00000   0.00452
  38        4PY        -0.00383   0.00082   0.00058   0.00000   0.00261
  39        4PZ         0.00000  -0.00000  -0.00000   0.00071  -0.00000
  40 4   H  1S         -0.00600  -0.03600   0.02078   0.00000  -0.07452
  41        2S          0.11415   0.09424  -0.05441   0.00000  -0.15622
  42        3S         -0.22968  -0.43181   0.24930   0.00003  -1.85323
  43        4PX         0.00664   0.00153  -0.00082  -0.00000  -0.00452
  44        4PY        -0.00383  -0.00082   0.00058   0.00000   0.00261
  45        4PZ         0.00000   0.00000  -0.00000   0.00071  -0.00000
                          11        12        13        14        15
                        (E)--V    (E)--V    (E)--V    (E)--V    (A1)--V
     Eigenvalues --     0.15398   0.15398   0.40322   0.40322   0.44300
   1 1   C  1S          0.00000   0.00000   0.00000   0.00000  -0.00336
   2        2S          0.00000   0.00000   0.00000   0.00000  -0.00687
   3        2PX         0.15122   0.00000  -0.07902   0.00000   0.00000
   4        2PY         0.00000  -0.15122   0.00000  -0.07902   0.00000
   5        2PZ         0.00000  -0.00000   0.00000   0.00000  -0.00001
   6        3S          0.00000  -0.00000   0.00000  -0.00000   0.22072
   7        3PX         0.15583   0.00000  -0.05548   0.00000   0.00000
   8        3PY         0.00000  -0.15583   0.00000  -0.05548   0.00000
   9        3PZ         0.00000  -0.00000   0.00000   0.00000  -0.00003
  10        4S          0.00000  -0.00000   0.00000   0.00000  -0.70665
  11        4PX         1.52727   0.00000   1.59613   0.00000   0.00000
  12        4PY         0.00000  -1.52727   0.00000   1.59613  -0.00000
  13        4PZ         0.00000   0.00000   0.00000  -0.00000   0.00012
  14        5S          0.00000  -0.00000   0.00000   0.00000   2.11710
  15        5PX         0.89669   0.00000  -1.18838   0.00000   0.00000
  16        5PY         0.00000  -0.89669   0.00000  -1.18838   0.00000
  17        5PZ         0.00000   0.00000   0.00000   0.00000  -0.00010
  18        6D 0        0.00000  -0.00000   0.00000  -0.00000  -0.02255
  19        6D+1        0.00000   0.00000   0.00000   0.00000   0.00000
  20        6D-1        0.00000  -0.00000   0.00000   0.00000  -0.00000
  21        6D+2        0.00000  -0.02079   0.00000   0.02285  -0.00000
  22        6D-2        0.02079   0.00000   0.02285   0.00000   0.00000
  23        7D 0        0.00000  -0.00000   0.00000  -0.00000  -0.15401
  24        7D+1       -0.00000   0.00000  -0.00002   0.00000   0.00000
  25        7D-1        0.00000   0.00000   0.00000  -0.00002  -0.00000
  26        7D+2        0.00000   0.01458   0.00000  -0.13155   0.00000
  27        7D-2       -0.01458   0.00000  -0.13155   0.00000   0.00000
  28 2   H  1S          0.00000   0.06287   0.00000  -0.06532   0.08345
  29        2S          0.00000   0.27113   0.00000  -1.53887   1.01238
  30        3S          0.00000   2.69508   0.00000   1.53212  -1.39988
  31        4PX         0.02994   0.00000   0.05958   0.00000   0.00000
  32        4PY         0.00000   0.01218   0.00000   0.09467  -0.02613
  33        4PZ         0.00000  -0.00000   0.00000  -0.00000   0.00000
  34 3   H  1S          0.05445  -0.03144   0.05657   0.03266   0.08345
  35        2S          0.23480  -0.13556   1.33270   0.76944   1.01238
  36        3S          2.33401  -1.34754  -1.32685  -0.76606  -1.39988
  37        4PX        -0.00165   0.01824   0.08590   0.01519   0.02263
  38        4PY        -0.01824  -0.01941   0.01519   0.06835   0.01306
  39        4PZ        -0.00000   0.00000   0.00000   0.00000   0.00000
  40 4   H  1S         -0.05445  -0.03144  -0.05657   0.03266   0.08345
  41        2S         -0.23480  -0.13556  -1.33270   0.76944   1.01238
  42        3S         -2.33401  -1.34754   1.32685  -0.76606  -1.39988
  43        4PX        -0.00165  -0.01824   0.08590  -0.01519  -0.02263
  44        4PY         0.01824  -0.01941  -0.01519   0.06835   0.01306
  45        4PZ         0.00000   0.00000  -0.00000   0.00000   0.00000
                          16        17        18        19        20
                        (A1)--V   (E)--V    (E)--V    (E)--V    (E)--V
     Eigenvalues --     0.53016   0.58391   0.58391   0.60296   0.60296
   1 1   C  1S          0.00000   0.00000   0.00000  -0.00000   0.00000
   2        2S          0.00000   0.00000   0.00000  -0.00000   0.00000
   3        2PX         0.00000  -0.27880   0.00000   0.00000   0.00000
   4        2PY         0.00000   0.00000   0.27880   0.00000   0.00000
   5        2PZ        -0.25473   0.00000   0.00000  -0.00000   0.00000
   6        3S         -0.00003   0.00000  -0.00000   0.00000   0.00000
   7        3PX         0.00000  -0.77746   0.00000   0.00000   0.00001
   8        3PY         0.00000   0.00000   0.77746   0.00001   0.00000
   9        3PZ        -0.91526   0.00000   0.00000  -0.00000   0.00000
  10        4S          0.00001   0.00000   0.00000  -0.00000   0.00000
  11        4PX         0.00000   2.23793   0.00000   0.00000   0.00004
  12        4PY        -0.00000   0.00000  -2.23793   0.00004   0.00000
  13        4PZ         1.61354   0.00000  -0.00000   0.00000   0.00000
  14        5S         -0.00018   0.00000  -0.00000  -0.00000   0.00000
  15        5PX         0.00000   0.35756   0.00000   0.00000  -0.00001
  16        5PY        -0.00000   0.00000  -0.35756  -0.00001   0.00000
  17        5PZ        -0.73184   0.00000   0.00000  -0.00000   0.00000
  18        6D 0        0.00000   0.00000  -0.00000   0.00000   0.00000
  19        6D+1        0.00000  -0.00000   0.00000   0.00000   0.00319
  20        6D-1       -0.00000   0.00000   0.00000   0.00319   0.00000
  21        6D+2        0.00000   0.00000   0.01244   0.00000   0.00000
  22        6D-2        0.00000  -0.01244   0.00000   0.00000   0.00000
  23        7D 0        0.00001   0.00000  -0.00000   0.00000   0.00000
  24        7D+1        0.00000  -0.00004   0.00000   0.00000   0.95436
  25        7D-1       -0.00000   0.00000   0.00004   0.95436   0.00000
  26        7D+2        0.00000   0.00000   0.54081  -0.00010   0.00000
  27        7D-2        0.00000  -0.54081   0.00000   0.00000  -0.00010
  28 2   H  1S         -0.00001   0.00000  -0.10799  -0.00000   0.00000
  29        2S         -0.00005   0.00000  -0.04388  -0.00004   0.00000
  30        3S          0.00011   0.00000   2.44828   0.00002   0.00000
  31        4PX         0.00000  -0.00492   0.00000   0.00000  -0.00000
  32        4PY        -0.00000   0.00000  -0.11876   0.00000   0.00000
  33        4PZ        -0.01256   0.00000   0.00001   0.05594   0.00000
  34 3   H  1S         -0.00001  -0.09352   0.05399   0.00000   0.00000
  35        2S         -0.00005  -0.03800   0.02194   0.00002   0.00004
  36        3S          0.00011   2.12027  -1.22414  -0.00001  -0.00002
  37        4PX         0.00000   0.08784  -0.05356   0.00000   0.00000
  38        4PY         0.00000   0.05356  -0.02600  -0.00000   0.00000
  39        4PZ        -0.01256   0.00001  -0.00000  -0.02797  -0.04845
  40 4   H  1S         -0.00001   0.09352   0.05399   0.00000  -0.00000
  41        2S         -0.00005   0.03800   0.02194   0.00002  -0.00004
  42        3S          0.00011  -2.12027  -1.22414  -0.00001   0.00002
  43        4PX        -0.00000   0.08784   0.05356  -0.00000   0.00000
  44        4PY         0.00000  -0.05356  -0.02600  -0.00000  -0.00000
  45        4PZ        -0.01256  -0.00001  -0.00000  -0.02797   0.04845
                          21        22        23        24        25
                        (A1)--V   (A1)--V   (E)--V    (E)--V    (A2)--V
     Eigenvalues --     0.70651   0.87773   0.98658   0.98658   1.39411
   1 1   C  1S          0.12360  -0.01286   0.00000   0.00000   0.00000
   2        2S          0.24164  -0.02660   0.00000   0.00000   0.00000
   3        2PX         0.00000   0.00000   0.08389   0.00000   0.00000
   4        2PY        -0.00000   0.00000   0.00000  -0.08389   0.00000
   5        2PZ         0.00001  -0.00000   0.00000   0.00000   0.00000
   6        3S         -1.92302  -0.16310   0.00000  -0.00000   0.00000
   7        3PX         0.00000   0.00000   0.84500   0.00000   0.00000
   8        3PY        -0.00000   0.00000   0.00000  -0.84500   0.00000
   9        3PZ         0.00000  -0.00003   0.00000   0.00000   0.00000
  10        4S          4.59701   2.92774   0.00000   0.00000   0.00000
  11        4PX         0.00000   0.00000   2.36770   0.00000   0.00000
  12        4PY         0.00000   0.00000   0.00000  -2.36770   0.00000
  13        4PZ        -0.00008  -0.00012   0.00000  -0.00000   0.00000
  14        5S          0.92024  -0.24445   0.00000   0.00000   0.00000
  15        5PX         0.00000   0.00000  -0.43504   0.00000  -0.00000
  16        5PY         0.00000  -0.00000   0.00000   0.43504   0.00000
  17        5PZ        -0.00004   0.00002   0.00000   0.00000   0.00000
  18        6D 0       -0.02684   0.00036   0.00000  -0.00000   0.00000
  19        6D+1        0.00000   0.00000  -0.00000   0.00000  -0.00000
  20        6D-1       -0.00000  -0.00000   0.00000   0.00000   0.00000
  21        6D+2       -0.00000  -0.00000   0.00000   0.01393   0.00000
  22        6D-2        0.00000   0.00000  -0.01393   0.00000   0.00000
  23        7D 0       -0.21310  -1.49473   0.00000  -0.00000   0.00000
  24        7D+1        0.00000   0.00000  -0.00018   0.00000   0.00000
  25        7D-1        0.00000   0.00000   0.00000   0.00018   0.00000
  26        7D+2       -0.00000  -0.00000   0.00000   2.00088   0.00000
  27        7D-2        0.00000   0.00000  -2.00088   0.00000  -0.00000
  28 2   H  1S          0.07737  -0.01198   0.00000  -0.01176   0.00000
  29        2S         -0.10718  -1.48137   0.00000   3.20225   0.00000
  30        3S         -1.53991   0.02617   0.00000  -0.43004   0.00000
  31        4PX         0.00000   0.00000  -0.02336   0.00000   0.59316
  32        4PY         0.13982   0.06288   0.00000  -0.20651   0.00000
  33        4PZ        -0.00001   0.00000   0.00000   0.00001   0.00000
  34 3   H  1S          0.07737  -0.01198  -0.01018   0.00588   0.00000
  35        2S         -0.10718  -1.48137   2.77323  -1.60112   0.00000
  36        3S         -1.53991   0.02617  -0.37242   0.21502  -0.00000
  37        4PX        -0.12108  -0.05446   0.14904  -0.09954  -0.29658
  38        4PY        -0.06991  -0.03144   0.09954  -0.03411   0.51369
  39        4PZ        -0.00001   0.00000   0.00001  -0.00001   0.00000
  40 4   H  1S          0.07737  -0.01198   0.01018   0.00588  -0.00000
  41        2S         -0.10718  -1.48137  -2.77323  -1.60112  -0.00000
  42        3S         -1.53991   0.02617   0.37242   0.21502   0.00000
  43        4PX         0.12108   0.05446   0.14904   0.09954  -0.29658
  44        4PY        -0.06991  -0.03144  -0.09954  -0.03411  -0.51369
  45        4PZ        -0.00001   0.00000  -0.00001  -0.00001  -0.00000
                          26        27        28        29        30
                        (A1)--V   (E)--V    (E)--V    (E)--V    (E)--V
     Eigenvalues --     1.64892   1.77007   1.77007   2.05555   2.05555
   1 1   C  1S          0.00000   0.00000   0.00000   0.00000   0.00000
   2        2S          0.00000   0.00000   0.00000   0.00000   0.00000
   3        2PX         0.00000   0.00000   0.00002  -0.28406   0.00000
   4        2PY         0.00000  -0.00002   0.00000   0.00000   0.28406
   5        2PZ        -0.15502  -0.00000   0.00000   0.00000   0.00000
   6        3S         -0.00002  -0.00000   0.00000   0.00000  -0.00000
   7        3PX         0.00000   0.00000  -0.00008   0.26251   0.00000
   8        3PY         0.00000   0.00008   0.00000   0.00000  -0.26251
   9        3PZ        -0.09630   0.00000   0.00000   0.00000  -0.00000
  10        4S         -0.00007   0.00000   0.00000   0.00000   0.00000
  11        4PX         0.00000   0.00000  -0.00010   0.11087   0.00000
  12        4PY        -0.00000   0.00010   0.00000   0.00000  -0.11087
  13        4PZ        -0.56553  -0.00000   0.00000   0.00000   0.00000
  14        5S          0.00003   0.00000   0.00000   0.00000  -0.00000
  15        5PX         0.00000   0.00000   0.00004  -0.36701   0.00000
  16        5PY        -0.00000  -0.00004   0.00000   0.00000   0.36701
  17        5PZ         0.14981   0.00000   0.00000   0.00000  -0.00000
  18        6D 0       -0.00000  -0.00000   0.00000   0.00000  -0.00000
  19        6D+1        0.00000   0.00000  -0.05855  -0.00003   0.00000
  20        6D-1       -0.00000   0.05855   0.00000   0.00000   0.00003
  21        6D+2        0.00000  -0.00001   0.00000   0.00000   0.10963
  22        6D-2        0.00000   0.00000   0.00001  -0.10963   0.00000
  23        7D 0        0.00012   0.00000   0.00000   0.00000   0.00000
  24        7D+1        0.00000   0.00000   0.88356   0.00015   0.00000
  25        7D-1        0.00000  -0.88356   0.00000   0.00000  -0.00015
  26        7D+2       -0.00000  -0.00021   0.00000   0.00000   0.98355
  27        7D-2        0.00000   0.00000   0.00021  -0.98355   0.00000
  28 2   H  1S         -0.00001   0.00004   0.00000   0.00000  -0.63107
  29        2S          0.00006  -0.00034   0.00000   0.00000   1.74908
  30        3S         -0.00002   0.00011   0.00000   0.00000  -1.18175
  31        4PX         0.00000   0.00000  -0.00015   0.91065   0.00000
  32        4PY         0.00002   0.00008   0.00000   0.00000   0.09610
  33        4PZ         0.66345   1.05114   0.00000   0.00000   0.00016
  34 3   H  1S         -0.00001  -0.00002   0.00004  -0.54652   0.31553
  35        2S          0.00006   0.00017  -0.00029   1.51475  -0.87454
  36        3S         -0.00002  -0.00005   0.00009  -1.02342   0.59087
  37        4PX        -0.00002  -0.00003  -0.00010   0.15559   0.43594
  38        4PY        -0.00001   0.00013   0.00003  -0.43594  -0.65897
  39        4PZ         0.66345  -0.52557   0.91032   0.00014  -0.00008
  40 4   H  1S         -0.00001  -0.00002  -0.00004   0.54652   0.31553
  41        2S          0.00006   0.00017   0.00029  -1.51475  -0.87454
  42        3S         -0.00002  -0.00005  -0.00009   1.02342   0.59087
  43        4PX         0.00002   0.00003  -0.00010   0.15559  -0.43594
  44        4PY        -0.00001   0.00013  -0.00003   0.43594  -0.65897
  45        4PZ         0.66345  -0.52557  -0.91032  -0.00014  -0.00008
                          31        32        33        34        35
                        (A1)--V   (E)--V    (E)--V    (E)--V    (E)--V
     Eigenvalues --     2.14720   2.25303   2.25303   2.57404   2.57404
   1 1   C  1S         -0.05264   0.00000   0.00000   0.00000   0.00000
   2        2S         -0.10747   0.00000   0.00000   0.00000   0.00000
   3        2PX         0.00000  -0.37390   0.00000  -0.12475   0.00000
   4        2PY         0.00000   0.00000  -0.37390   0.00000   0.12475
   5        2PZ        -0.00002   0.00000  -0.00000   0.00000   0.00000
   6        3S          0.46122   0.00000  -0.00000   0.00000  -0.00000
   7        3PX         0.00000  -1.03012   0.00000   1.71245   0.00000
   8        3PY         0.00000   0.00000  -1.03012   0.00000  -1.71245
   9        3PZ        -0.00002   0.00000   0.00000   0.00000  -0.00000
  10        4S          1.30392   0.00000   0.00000   0.00000   0.00000
  11        4PX         0.00000  -1.48593   0.00000   0.77616   0.00000
  12        4PY         0.00000   0.00000  -1.48593   0.00000  -0.77616
  13        4PZ        -0.00002   0.00000  -0.00000   0.00000  -0.00000
  14        5S          0.99610   0.00000   0.00000   0.00000   0.00000
  15        5PX         0.00000  -0.03684   0.00000  -0.44956   0.00000
  16        5PY         0.00000   0.00000  -0.03684   0.00000   0.44956
  17        5PZ        -0.00003   0.00000   0.00000   0.00000   0.00000
  18        6D 0        0.22865   0.00000   0.00000   0.00000   0.00000
  19        6D+1        0.00000  -0.00000   0.00000   0.00000   0.00000
  20        6D-1       -0.00000   0.00000  -0.00000   0.00000  -0.00000
  21        6D+2        0.00000   0.00000  -0.19621   0.00000   0.06745
  22        6D-2        0.00000  -0.19621   0.00000  -0.06745   0.00000
  23        7D 0       -0.49927   0.00000   0.00000   0.00000   0.00000
  24        7D+1        0.00000   0.00004   0.00000  -0.00010   0.00000
  25        7D-1       -0.00000   0.00000   0.00004   0.00000   0.00010
  26        7D+2        0.00000   0.00000   2.00836   0.00000   0.23639
  27        7D-2        0.00000   2.00836   0.00000  -0.23639   0.00000
  28 2   H  1S         -0.67843   0.00000   0.36818   0.00000  -1.01646
  29        2S          0.48264   0.00000   2.05039   0.00000   3.02174
  30        3S         -1.01976   0.00000   0.60758   0.00000  -1.13715
  31        4PX         0.00000  -0.72961   0.00000  -0.45767   0.00000
  32        4PY         0.47374   0.00000  -1.12134   0.00000  -1.07712
  33        4PZ        -0.00003   0.00000   0.00013   0.00000   0.00002
  34 3   H  1S         -0.67843  -0.31886  -0.18409  -0.88028   0.50823
  35        2S          0.48264  -1.77569  -1.02519   2.61690  -1.51087
  36        3S         -1.01976  -0.52618  -0.30379  -0.98480   0.56858
  37        4PX        -0.41027  -1.02340  -0.16962   0.69342  -0.66458
  38        4PY        -0.23687  -0.16962  -0.82754   0.66458   0.07397
  39        4PZ        -0.00003  -0.00011  -0.00006   0.00002  -0.00001
  40 4   H  1S         -0.67843   0.31886  -0.18409   0.88028   0.50823
  41        2S          0.48264   1.77569  -1.02519  -2.61690  -1.51087
  42        3S         -1.01976   0.52618  -0.30379   0.98480   0.56858
  43        4PX         0.41027  -1.02340   0.16962   0.69342   0.66458
  44        4PY        -0.23687   0.16962  -0.82754  -0.66458   0.07397
  45        4PZ        -0.00003   0.00011  -0.00006  -0.00002  -0.00001
                          36        37        38        39        40
                        (A1)--V   (A1)--V   (E)--V    (E)--V    (E)--V
     Eigenvalues --     2.71590   2.78626   3.02818   3.02818   3.21003
   1 1   C  1S          0.00000   0.07055   0.00000   0.00000   0.00000
   2        2S         -0.00000   0.19225   0.00000   0.00000   0.00000
   3        2PX         0.00000   0.00000  -1.19982   0.00000  -0.00001
   4        2PY         0.00000   0.00000   0.00000  -1.19982   0.00000
   5        2PZ        -1.32015  -0.00003   0.00000  -0.00000   0.00000
   6        3S          0.00001  -1.60534   0.00000  -0.00000   0.00000
   7        3PX         0.00000   0.00000   2.19945   0.00000   0.00001
   8        3PY        -0.00000  -0.00000   0.00000   2.19945   0.00000
   9        3PZ         1.63543   0.00015   0.00000   0.00000   0.00000
  10        4S          0.00003  -2.35652   0.00000  -0.00000   0.00000
  11        4PX         0.00000   0.00000   0.17337   0.00000   0.00001
  12        4PY         0.00000   0.00000   0.00000   0.17337   0.00000
  13        4PZ        -0.75502   0.00006   0.00000   0.00000   0.00000
  14        5S          0.00000   0.73914   0.00000   0.00000   0.00000
  15        5PX         0.00000   0.00000   0.00307   0.00000   0.00000
  16        5PY         0.00000  -0.00000   0.00000   0.00307   0.00000
  17        5PZ         0.25569  -0.00002   0.00000  -0.00000   0.00000
  18        6D 0       -0.00001  -0.11309   0.00000  -0.00000   0.00000
  19        6D+1        0.00000   0.00000   0.00004   0.00000   1.12352
  20        6D-1        0.00000   0.00000   0.00000   0.00004   0.00000
  21        6D+2        0.00000  -0.00000   0.00000   0.53059   0.00000
  22        6D-2        0.00000   0.00000   0.53059   0.00000  -0.00009
  23        7D 0       -0.00001   0.80567   0.00000   0.00000   0.00000
  24        7D+1        0.00000   0.00000  -0.00009   0.00000  -0.48626
  25        7D-1       -0.00000  -0.00000   0.00000  -0.00009   0.00000
  26        7D+2       -0.00000  -0.00000   0.00000  -1.19110   0.00000
  27        7D-2        0.00000   0.00000  -1.19110   0.00000   0.00002
  28 2   H  1S          0.00003  -0.67050   0.00000  -0.33442   0.00000
  29        2S         -0.00004   2.36629   0.00000  -1.41030   0.00000
  30        3S          0.00000  -0.50462   0.00000   0.26236   0.00000
  31        4PX         0.00000   0.00000   0.06975   0.00000   0.00002
  32        4PY         0.00000  -0.87952   0.00000   0.39732   0.00000
  33        4PZ        -0.14807   0.00003   0.00000  -0.00002   0.00000
  34 3   H  1S          0.00003  -0.67050   0.28961   0.16721   0.00001
  35        2S         -0.00004   2.36629   1.22136   0.70515   0.00001
  36        3S          0.00000  -0.50462  -0.22721  -0.13118   0.00000
  37        4PX        -0.00000   0.76169   0.31543   0.14184   0.00000
  38        4PY        -0.00000   0.43976   0.14184   0.15165  -0.00001
  39        4PZ        -0.14807   0.00003   0.00002   0.00001   0.03208
  40 4   H  1S          0.00003  -0.67050  -0.28961   0.16721  -0.00001
  41        2S         -0.00004   2.36629  -1.22136   0.70515  -0.00001
  42        3S          0.00000  -0.50462   0.22721  -0.13118  -0.00000
  43        4PX         0.00000  -0.76169   0.31543  -0.14184   0.00000
  44        4PY        -0.00000   0.43976  -0.14184   0.15165   0.00001
  45        4PZ        -0.14807   0.00003  -0.00002   0.00001  -0.03208
                          41        42        43        44        45
                        (E)--V    (A1)--V   (E)--V    (E)--V    (A1)--V
     Eigenvalues --     3.21003   3.55897   4.10848   4.10848  23.85360
   1 1   C  1S         -0.00000   0.05804   0.00000   0.00000  -2.03726
   2        2S         -0.00000   0.11165   0.00000   0.00000   2.23232
   3        2PX         0.00000   0.00000  -0.67039   0.00000   0.00000
   4        2PY        -0.00001   0.00000   0.00000  -0.67039  -0.00000
   5        2PZ         0.00000  -0.00002   0.00000  -0.00000  -0.00000
   6        3S          0.00000  -0.91026   0.00000  -0.00000  -0.72914
   7        3PX         0.00000   0.00000   2.56375   0.00000   0.00000
   8        3PY         0.00001  -0.00000   0.00000   2.56375   0.00000
   9        3PZ        -0.00000   0.00008   0.00000   0.00000   0.00003
  10        4S          0.00000  -0.52113   0.00000  -0.00000   0.03842
  11        4PX         0.00000   0.00000   0.02312   0.00000   0.00000
  12        4PY         0.00001   0.00000   0.00000   0.02312  -0.00000
  13        4PZ         0.00000  -0.00001   0.00000   0.00000   0.00000
  14        5S         -0.00000   0.12233   0.00000  -0.00000   0.11442
  15        5PX         0.00000   0.00000  -0.07749   0.00000   0.00000
  16        5PY         0.00000  -0.00000   0.00000  -0.07749   0.00000
  17        5PZ        -0.00000   0.00001   0.00000  -0.00000  -0.00000
  18        6D 0        0.00000   1.17677   0.00000   0.00000   0.06917
  19        6D+1        0.00000   0.00000  -0.00010   0.00000   0.00000
  20        6D-1        1.12352  -0.00000   0.00000  -0.00010  -0.00000
  21        6D+2       -0.00009   0.00000   0.00000  -1.15490  -0.00000
  22        6D-2        0.00000   0.00000  -1.15490   0.00000   0.00000
  23        7D 0       -0.00000  -0.28843   0.00000   0.00000   0.11285
  24        7D+1        0.00000   0.00000  -0.00004   0.00000   0.00000
  25        7D-1       -0.48626   0.00000   0.00000  -0.00004  -0.00000
  26        7D+2        0.00002  -0.00000   0.00000  -0.48720  -0.00000
  27        7D-2        0.00000   0.00000  -0.48720   0.00000   0.00000
  28 2   H  1S         -0.00001   0.07752   0.00000  -0.44009  -0.01996
  29        2S         -0.00001   0.40388   0.00000  -1.62939   0.32211
  30        3S         -0.00000  -0.00887   0.00000   0.40635  -0.14096
  31        4PX         0.00000   0.00000   0.04888   0.00000   0.00000
  32        4PY        -0.00000  -0.52406   0.00000   1.25872  -0.17992
  33        4PZ        -0.03705   0.00002   0.00000  -0.00006   0.00001
  34 3   H  1S          0.00000   0.07752   0.38113   0.22004  -0.01996
  35        2S          0.00001   0.40388   1.41109   0.81469   0.32211
  36        3S          0.00000  -0.00887  -0.35191  -0.20318  -0.14096
  37        4PX        -0.00001   0.45385   0.95626   0.52387   0.15582
  38        4PY         0.00001   0.26203   0.52387   0.35134   0.08996
  39        4PZ         0.01852   0.00002   0.00005   0.00003   0.00001
  40 4   H  1S          0.00000   0.07752  -0.38113   0.22004  -0.01996
  41        2S          0.00001   0.40388  -1.41109   0.81469   0.32211
  42        3S          0.00000  -0.00887   0.35191  -0.20318  -0.14096
  43        4PX         0.00001  -0.45385   0.95626  -0.52387  -0.15582
  44        4PY         0.00001   0.26203  -0.52387   0.35134   0.08996
  45        4PZ         0.01852   0.00002  -0.00005   0.00003   0.00001
     Beta Molecular Orbital Coefficients:
                           1         2         3         4         5
                        (A1)--O   (A1)--O   (E)--O    (E)--O    (A1)--V
     Eigenvalues --   -10.16985  -0.65187  -0.41721  -0.41721  -0.08004
   1 1   C  1S          0.56331  -0.10914   0.00000   0.00000  -0.00000
   2        2S          0.46335  -0.16845  -0.00000   0.00000  -0.00001
   3        2PX         0.00000   0.00000   0.00000   0.20941   0.00000
   4        2PY         0.00000   0.00000   0.20941   0.00000   0.00000
   5        2PZ        -0.00000  -0.00001  -0.00000   0.00000   0.21969
   6        3S          0.01724   0.44070   0.00000   0.00000   0.00002
   7        3PX         0.00000   0.00000   0.00000   0.26184   0.00000
   8        3PY         0.00000  -0.00000   0.26184   0.00000   0.00000
   9        3PZ        -0.00000  -0.00001   0.00000   0.00000   0.31495
  10        4S         -0.00441   0.28484  -0.00000   0.00000   0.00004
  11        4PX         0.00000   0.00000   0.00000   0.15402   0.00000
  12        4PY        -0.00000  -0.00000   0.15402   0.00000   0.00000
  13        4PZ         0.00000  -0.00000  -0.00000   0.00000   0.43981
  14        5S         -0.00190   0.01138   0.00000   0.00000   0.00000
  15        5PX         0.00000   0.00000   0.00000   0.01819   0.00000
  16        5PY        -0.00000  -0.00000   0.01819   0.00000   0.00000
  17        5PZ         0.00000  -0.00000   0.00000   0.00000   0.29077
  18        6D 0       -0.00166  -0.01517  -0.00000   0.00000  -0.00000
  19        6D+1        0.00000   0.00000   0.00000  -0.00000   0.00000
  20        6D-1       -0.00000   0.00000  -0.00000   0.00000   0.00000
  21        6D+2        0.00000  -0.00000  -0.01338   0.00000   0.00000
  22        6D-2        0.00000   0.00000   0.00000  -0.01338   0.00000
  23        7D 0       -0.00130  -0.01411   0.00000   0.00000  -0.00001
  24        7D+1        0.00000   0.00000   0.00000  -0.00000   0.00000
  25        7D-1       -0.00000  -0.00000  -0.00000   0.00000   0.00000
  26        7D+2       -0.00000   0.00000   0.01183   0.00000  -0.00000
  27        7D-2        0.00000   0.00000   0.00000   0.01183   0.00000
  28 2   H  1S          0.00030   0.10001   0.18152   0.00000  -0.00000
  29        2S         -0.00410   0.12189   0.28837   0.00000  -0.00001
  30        3S          0.00278   0.01333   0.09751   0.00000  -0.00000
  31        4PX         0.00000   0.00000   0.00000   0.01001   0.00000
  32        4PY         0.00222  -0.01793  -0.02726   0.00000   0.00000
  33        4PZ        -0.00000   0.00000   0.00000   0.00000   0.02848
  34 3   H  1S          0.00030   0.10001  -0.09076  -0.15720  -0.00000
  35        2S         -0.00410   0.12189  -0.14418  -0.24973  -0.00001
  36        3S          0.00278   0.01333  -0.04875  -0.08445  -0.00000
  37        4PX        -0.00192   0.01552  -0.01614  -0.01795  -0.00000
  38        4PY        -0.00111   0.00896   0.00069  -0.01614  -0.00000
  39        4PZ        -0.00000   0.00000  -0.00000  -0.00000   0.02848
  40 4   H  1S          0.00030   0.10001  -0.09076   0.15720  -0.00000
  41        2S         -0.00410   0.12189  -0.14418   0.24973  -0.00001
  42        3S          0.00278   0.01333  -0.04875   0.08445  -0.00000
  43        4PX         0.00192  -0.01552   0.01614  -0.01795   0.00000
  44        4PY        -0.00111   0.00896   0.00069   0.01614  -0.00000
  45        4PZ        -0.00000   0.00000  -0.00000   0.00000   0.02848
                           6         7         8         9        10
                        (A1)--V   (E)--V    (E)--V    (A1)--V   (E)--V
     Eigenvalues --     0.01967   0.05412   0.05412   0.09298   0.15651
   1 1   C  1S          0.04405   0.00000   0.00000   0.00000   0.00000
   2        2S          0.07092   0.00000   0.00000   0.00001   0.00000
   3        2PX         0.00000  -0.07480   0.00000   0.00000   0.15373
   4        2PY         0.00000   0.00000  -0.07480  -0.00000   0.00000
   5        2PZ         0.00001   0.00000   0.00000  -0.15722   0.00000
   6        3S         -0.18696   0.00000   0.00000  -0.00001   0.00000
   7        3PX         0.00000  -0.13771   0.00000   0.00000   0.14316
   8        3PY         0.00000   0.00000  -0.13771  -0.00000   0.00000
   9        3PZ         0.00001   0.00000   0.00000  -0.17207   0.00000
  10        4S         -0.75333   0.00000  -0.00000  -0.00009   0.00000
  11        4PX         0.00000  -0.22778   0.00000   0.00000   1.54046
  12        4PY        -0.00000   0.00000  -0.22778   0.00000   0.00000
  13        4PZ         0.00001   0.00000   0.00000  -0.62413   0.00000
  14        5S          1.81090   0.00000  -0.00000   0.00000   0.00000
  15        5PX         0.00000   1.38941   0.00000   0.00000   0.88954
  16        5PY        -0.00000   0.00000   1.38941   0.00000   0.00000
  17        5PZ        -0.00004   0.00000  -0.00000   1.19155   0.00000
  18        6D 0        0.00652   0.00000  -0.00000   0.00000   0.00000
  19        6D+1        0.00000   0.00000   0.00000   0.00000   0.00000
  20        6D-1        0.00000   0.00000   0.00000   0.00000   0.00000
  21        6D+2       -0.00000   0.00000   0.00529   0.00000   0.00000
  22        6D-2        0.00000   0.00529   0.00000   0.00000   0.02050
  23        7D 0        0.02350   0.00000   0.00000   0.00000   0.00000
  24        7D+1        0.00000   0.00000   0.00000   0.00000  -0.00001
  25        7D-1        0.00000   0.00000   0.00000  -0.00000   0.00000
  26        7D+2       -0.00000   0.00000   0.05614  -0.00000   0.00000
  27        7D-2        0.00000   0.05614   0.00000   0.00000  -0.01283
  28 2   H  1S         -0.01113   0.00000  -0.04521   0.00000   0.00000
  29        2S          0.11200   0.00000   0.09831   0.00001   0.00000
  30        3S         -0.24480   0.00000  -0.52304   0.00004   0.00000
  31        4PX         0.00000   0.00053   0.00000   0.00000   0.03134
  32        4PY         0.00726   0.00000   0.00320  -0.00000   0.00000
  33        4PZ         0.00000   0.00000   0.00000  -0.00720   0.00000
  34 3   H  1S         -0.01113   0.03916   0.02261   0.00000   0.04963
  35        2S          0.11200  -0.08514  -0.04916   0.00001   0.21150
  36        3S         -0.24480   0.45296   0.26152   0.00004   2.35730
  37        4PX        -0.00629   0.00253   0.00115   0.00000  -0.00532
  38        4PY        -0.00363   0.00115   0.00120   0.00000  -0.02117
  39        4PZ         0.00000  -0.00000  -0.00000  -0.00720  -0.00000
  40 4   H  1S         -0.01113  -0.03916   0.02261   0.00000  -0.04963
  41        2S          0.11200   0.08514  -0.04916   0.00001  -0.21150
  42        3S         -0.24480  -0.45296   0.26152   0.00004  -2.35730
  43        4PX         0.00629   0.00253  -0.00115  -0.00000  -0.00532
  44        4PY        -0.00363  -0.00115   0.00120   0.00000   0.02117
  45        4PZ         0.00000   0.00000  -0.00000  -0.00720   0.00000
                          11        12        13        14        15
                        (E)--V    (A1)--V   (E)--V    (E)--V    (A1)--V
     Eigenvalues --     0.15651   0.16634   0.40666   0.40666   0.46681
   1 1   C  1S         -0.00000  -0.05695   0.00000   0.00000   0.00538
   2        2S         -0.00000  -0.08795   0.00000   0.00000   0.00730
   3        2PX         0.00000   0.00000  -0.07068   0.00000   0.00000
   4        2PY        -0.15373   0.00000   0.00000  -0.07068   0.00000
   5        2PZ        -0.00000  -0.00001   0.00000   0.00000  -0.00001
   6        3S          0.00000   0.13467   0.00000  -0.00000   0.17906
   7        3PX         0.00000   0.00000  -0.04889   0.00000   0.00000
   8        3PY        -0.14316   0.00000   0.00000  -0.04889   0.00000
   9        3PZ        -0.00000  -0.00001   0.00000   0.00000  -0.00002
  10        4S          0.00000   2.57282   0.00000   0.00000  -0.92607
  11        4PX         0.00000   0.00000   1.56245   0.00000   0.00000
  12        4PY        -1.54046   0.00000   0.00000   1.56245  -0.00000
  13        4PZ        -0.00000  -0.00010   0.00000   0.00000   0.00010
  14        5S          0.00000   2.63623   0.00000   0.00000   2.01889
  15        5PX         0.00000   0.00000  -1.18622   0.00000   0.00000
  16        5PY        -0.88954   0.00000   0.00000  -1.18622   0.00000
  17        5PZ         0.00000  -0.00005   0.00000  -0.00000  -0.00009
  18        6D 0        0.00000   0.00805   0.00000  -0.00000  -0.01845
  19        6D+1        0.00000   0.00000   0.00000   0.00000   0.00000
  20        6D-1       -0.00000   0.00000   0.00000   0.00000  -0.00000
  21        6D+2       -0.02050   0.00000   0.00000   0.02260  -0.00000
  22        6D-2        0.00000   0.00000   0.02260   0.00000   0.00000
  23        7D 0       -0.00000   0.00115   0.00000  -0.00000  -0.07137
  24        7D+1        0.00000   0.00000  -0.00003   0.00000   0.00000
  25        7D-1        0.00001  -0.00000   0.00000  -0.00003  -0.00000
  26        7D+2        0.01283  -0.00000   0.00000  -0.11876   0.00000
  27        7D-2        0.00000   0.00000  -0.11876   0.00000   0.00000
  28 2   H  1S          0.05731  -0.06625   0.00000  -0.06802   0.08863
  29        2S          0.24422  -0.13320   0.00000  -1.52834   1.09704
  30        3S          2.72197  -1.93360   0.00000   1.55535  -1.33284
  31        4PX         0.00000   0.00000   0.06167   0.00000   0.00000
  32        4PY         0.01754  -0.00755   0.00000   0.08960  -0.02411
  33        4PZ        -0.00000  -0.00000   0.00000  -0.00000   0.00000
  34 3   H  1S         -0.02865  -0.06625   0.05891   0.03401   0.08863
  35        2S         -0.12211  -0.13320   1.32358   0.76417   1.09704
  36        3S         -1.36099  -1.93360  -1.34697  -0.77768  -1.33284
  37        4PX         0.02117   0.00654   0.08262   0.01209   0.02088
  38        4PY        -0.01912   0.00377   0.01209   0.06865   0.01205
  39        4PZ         0.00000  -0.00000   0.00000   0.00000   0.00000
  40 4   H  1S         -0.02865  -0.06625  -0.05891   0.03401   0.08863
  41        2S         -0.12211  -0.13320  -1.32358   0.76417   1.09704
  42        3S         -1.36099  -1.93360   1.34697  -0.77768  -1.33284
  43        4PX        -0.02117  -0.00654   0.08262  -0.01209  -0.02088
  44        4PY        -0.01912   0.00377  -0.01209   0.06865   0.01205
  45        4PZ         0.00000  -0.00000  -0.00000   0.00000   0.00000
                          16        17        18        19        20
                        (A1)--V   (E)--V    (E)--V    (E)--V    (E)--V
     Eigenvalues --     0.59074   0.59171   0.59171   0.63923   0.63923
   1 1   C  1S          0.00000   0.00000   0.00000  -0.00000   0.00000
   2        2S          0.00000   0.00000   0.00000  -0.00000   0.00000
   3        2PX         0.00000  -0.28262   0.00000   0.00000   0.00001
   4        2PY         0.00000   0.00000   0.28262   0.00001   0.00000
   5        2PZ        -0.26475   0.00000   0.00000   0.00000   0.00000
   6        3S          0.00000   0.00000  -0.00000   0.00000   0.00000
   7        3PX         0.00000  -0.77489   0.00000   0.00000   0.00004
   8        3PY         0.00000   0.00000   0.77489   0.00004   0.00000
   9        3PZ        -0.96807   0.00000   0.00000   0.00000   0.00000
  10        4S         -0.00008   0.00000   0.00000  -0.00000   0.00000
  11        4PX         0.00000   2.25389   0.00000   0.00000  -0.00002
  12        4PY        -0.00000   0.00000  -2.25389  -0.00002   0.00000
  13        4PZ         1.56334   0.00000  -0.00000  -0.00000   0.00000
  14        5S         -0.00015   0.00000  -0.00000  -0.00000   0.00000
  15        5PX         0.00000   0.33541   0.00000   0.00000  -0.00003
  16        5PY        -0.00000   0.00000  -0.33541  -0.00003   0.00000
  17        5PZ        -0.67925   0.00000   0.00000   0.00000   0.00000
  18        6D 0        0.00000   0.00000   0.00000  -0.00000   0.00000
  19        6D+1        0.00000   0.00000   0.00000   0.00000  -0.00450
  20        6D-1       -0.00000   0.00000  -0.00000  -0.00450   0.00000
  21        6D+2        0.00000   0.00000   0.01214   0.00000   0.00000
  22        6D-2        0.00000  -0.01214   0.00000   0.00000   0.00000
  23        7D 0        0.00001   0.00000  -0.00000   0.00000   0.00000
  24        7D+1        0.00000  -0.00001   0.00000   0.00000   0.94892
  25        7D-1        0.00000   0.00000   0.00001   0.94892   0.00000
  26        7D+2        0.00000   0.00000   0.54951  -0.00009   0.00000
  27        7D-2        0.00000  -0.54951   0.00000   0.00000  -0.00009
  28 2   H  1S         -0.00001   0.00000  -0.10561  -0.00001   0.00000
  29        2S         -0.00003   0.00000  -0.00414  -0.00006   0.00000
  30        3S          0.00012   0.00000   2.39759   0.00010   0.00000
  31        4PX         0.00000  -0.00553   0.00000   0.00000  -0.00000
  32        4PY        -0.00000   0.00000  -0.12784   0.00000   0.00000
  33        4PZ        -0.01864   0.00000   0.00000   0.06686   0.00000
  34 3   H  1S         -0.00001  -0.09146   0.05281   0.00000   0.00000
  35        2S         -0.00003  -0.00359   0.00207   0.00003   0.00005
  36        3S          0.00012   2.07637  -1.19879  -0.00005  -0.00009
  37        4PX         0.00000   0.09450  -0.05775   0.00000   0.00000
  38        4PY         0.00000   0.05775  -0.02781  -0.00000   0.00000
  39        4PZ        -0.01864   0.00000  -0.00000  -0.03343  -0.05790
  40 4   H  1S         -0.00001   0.09146   0.05281   0.00000  -0.00000
  41        2S         -0.00003   0.00359   0.00207   0.00003  -0.00005
  42        3S          0.00012  -2.07637  -1.19879  -0.00005   0.00009
  43        4PX        -0.00000   0.09450   0.05775  -0.00000   0.00000
  44        4PY         0.00000  -0.05775  -0.02781  -0.00000  -0.00000
  45        4PZ        -0.01864  -0.00000  -0.00000  -0.03343   0.05790
                          21        22        23        24        25
                        (A1)--V   (A1)--V   (E)--V    (E)--V    (A2)--V
     Eigenvalues --     0.73100   0.90992   0.99547   0.99547   1.39031
   1 1   C  1S          0.12557  -0.00940   0.00000   0.00000   0.00000
   2        2S          0.24332  -0.02231   0.00000   0.00000   0.00000
   3        2PX         0.00000   0.00000   0.08763   0.00000  -0.00000
   4        2PY        -0.00000   0.00000   0.00000  -0.08763   0.00000
   5        2PZ         0.00000  -0.00001   0.00000   0.00000   0.00000
   6        3S         -1.92661  -0.15841   0.00000  -0.00000   0.00000
   7        3PX         0.00000   0.00000   0.83465   0.00000   0.00000
   8        3PY         0.00000   0.00000   0.00000  -0.83465   0.00000
   9        3PZ        -0.00001  -0.00003   0.00000   0.00000   0.00000
  10        4S          4.60198   2.80732   0.00000   0.00000   0.00000
  11        4PX         0.00000   0.00000   2.36439   0.00000   0.00000
  12        4PY         0.00000   0.00000   0.00000  -2.36439   0.00000
  13        4PZ        -0.00005  -0.00012   0.00000  -0.00000   0.00000
  14        5S          0.88334  -0.17535   0.00000   0.00000   0.00000
  15        5PX         0.00000   0.00000  -0.43754   0.00000  -0.00000
  16        5PY         0.00000  -0.00000   0.00000   0.43754   0.00000
  17        5PZ        -0.00005   0.00002   0.00000   0.00000   0.00000
  18        6D 0       -0.00896   0.00800   0.00000   0.00000   0.00000
  19        6D+1        0.00000   0.00000  -0.00000   0.00000  -0.00000
  20        6D-1       -0.00000  -0.00000   0.00000   0.00000   0.00000
  21        6D+2       -0.00000  -0.00000   0.00000   0.01285   0.00000
  22        6D-2        0.00000   0.00000  -0.01285   0.00000   0.00000
  23        7D 0       -0.22985  -1.50856   0.00000  -0.00000   0.00000
  24        7D+1        0.00000   0.00000  -0.00019   0.00000   0.00000
  25        7D-1        0.00000   0.00000   0.00000   0.00019   0.00000
  26        7D+2       -0.00000  -0.00000   0.00000   1.98656   0.00000
  27        7D-2        0.00000   0.00000  -1.98656   0.00000  -0.00000
  28 2   H  1S          0.07351  -0.00644   0.00000  -0.01704   0.00000
  29        2S         -0.13789  -1.41753   0.00000   3.18833   0.00000
  30        3S         -1.50281  -0.01060   0.00000  -0.43308   0.00000
  31        4PX         0.00000   0.00000  -0.02785   0.00000   0.59316
  32        4PY         0.14900   0.06328   0.00000  -0.19739   0.00000
  33        4PZ        -0.00001   0.00000   0.00000   0.00002   0.00000
  34 3   H  1S          0.07351  -0.00644  -0.01476   0.00852   0.00000
  35        2S         -0.13789  -1.41753   2.76117  -1.59417   0.00000
  36        3S         -1.50281  -0.01060  -0.37506   0.21654  -0.00000
  37        4PX        -0.12904  -0.05480   0.14108  -0.09753  -0.29658
  38        4PY        -0.07450  -0.03164   0.09753  -0.02846   0.51369
  39        4PZ        -0.00001   0.00000   0.00001  -0.00001   0.00000
  40 4   H  1S          0.07351  -0.00644   0.01476   0.00852  -0.00000
  41        2S         -0.13789  -1.41753  -2.76117  -1.59417  -0.00000
  42        3S         -1.50281  -0.01060   0.37506   0.21654   0.00000
  43        4PX         0.12904   0.05480   0.14108   0.09753  -0.29658
  44        4PY        -0.07450  -0.03164  -0.09753  -0.02846  -0.51369
  45        4PZ        -0.00001   0.00000  -0.00001  -0.00001  -0.00000
                          26        27        28        29        30
                        (A1)--V   (E)--V    (E)--V    (E)--V    (E)--V
     Eigenvalues --     1.66100   1.77962   1.77962   2.05335   2.05335
   1 1   C  1S          0.00000   0.00000   0.00000   0.00000   0.00000
   2        2S          0.00000   0.00000   0.00000   0.00000   0.00000
   3        2PX         0.00000   0.00002   0.00000  -0.28279   0.00000
   4        2PY         0.00000   0.00000  -0.00002   0.00000   0.28279
   5        2PZ        -0.15619   0.00000   0.00000   0.00000   0.00000
   6        3S         -0.00002   0.00000  -0.00000   0.00000  -0.00000
   7        3PX         0.00000  -0.00008   0.00000   0.28230   0.00000
   8        3PY         0.00000   0.00000   0.00008   0.00000  -0.28230
   9        3PZ        -0.11674   0.00000   0.00000   0.00000   0.00000
  10        4S         -0.00007   0.00000   0.00000   0.00000   0.00000
  11        4PX         0.00000  -0.00011   0.00000   0.13288   0.00000
  12        4PY        -0.00000   0.00000   0.00011   0.00000  -0.13288
  13        4PZ        -0.55797   0.00000   0.00000   0.00000   0.00000
  14        5S          0.00003   0.00000   0.00000   0.00000  -0.00000
  15        5PX         0.00000   0.00004   0.00000  -0.36907   0.00000
  16        5PY        -0.00000   0.00000  -0.00004   0.00000   0.36907
  17        5PZ         0.14696   0.00000  -0.00000   0.00000  -0.00000
  18        6D 0       -0.00000   0.00000  -0.00000   0.00000  -0.00000
  19        6D+1        0.00000  -0.05855   0.00000  -0.00003   0.00000
  20        6D-1       -0.00000   0.00000   0.05855   0.00000   0.00003
  21        6D+2        0.00000   0.00000  -0.00001   0.00000   0.10712
  22        6D-2        0.00000   0.00001   0.00000  -0.10712   0.00000
  23        7D 0        0.00012   0.00000  -0.00000   0.00000   0.00000
  24        7D+1        0.00000   0.89321   0.00000   0.00015   0.00000
  25        7D-1        0.00000   0.00000  -0.89321   0.00000  -0.00015
  26        7D+2       -0.00000   0.00000  -0.00022   0.00000   1.00836
  27        7D-2        0.00000   0.00022   0.00000  -1.00836   0.00000
  28 2   H  1S         -0.00001   0.00000   0.00005   0.00000  -0.63383
  29        2S          0.00006   0.00000  -0.00036   0.00000   1.79057
  30        3S         -0.00002   0.00000   0.00011   0.00000  -1.18116
  31        4PX         0.00000  -0.00016   0.00000   0.91511   0.00000
  32        4PY         0.00002   0.00000   0.00009   0.00000   0.07715
  33        4PZ         0.66354   0.00000   1.05052   0.00000   0.00017
  34 3   H  1S         -0.00001   0.00004  -0.00002  -0.54891   0.31691
  35        2S          0.00006  -0.00031   0.00018   1.55068  -0.89529
  36        3S         -0.00002   0.00010  -0.00006  -1.02292   0.59058
  37        4PX        -0.00002  -0.00010  -0.00003   0.17092   0.42966
  38        4PY        -0.00001   0.00003   0.00014  -0.42966  -0.66705
  39        4PZ         0.66354   0.90978  -0.52526   0.00014  -0.00008
  40 4   H  1S         -0.00001  -0.00004  -0.00002   0.54891   0.31691
  41        2S          0.00006   0.00031   0.00018  -1.55068  -0.89529
  42        3S         -0.00002  -0.00010  -0.00006   1.02292   0.59058
  43        4PX         0.00002  -0.00010   0.00003   0.17092  -0.42966
  44        4PY        -0.00001  -0.00003   0.00014   0.42966  -0.66705
  45        4PZ         0.66354  -0.90978  -0.52526  -0.00014  -0.00008
                          31        32        33        34        35
                        (A1)--V   (E)--V    (E)--V    (E)--V    (E)--V
     Eigenvalues --     2.15944   2.25652   2.25652   2.57433   2.57433
   1 1   C  1S         -0.05481   0.00000   0.00000   0.00000   0.00000
   2        2S         -0.10904   0.00000   0.00000   0.00000   0.00000
   3        2PX         0.00000  -0.38118   0.00000  -0.11279   0.00000
   4        2PY         0.00000   0.00000  -0.38118   0.00000   0.11279
   5        2PZ        -0.00002   0.00000  -0.00000   0.00000   0.00000
   6        3S          0.46717   0.00000  -0.00000   0.00000  -0.00000
   7        3PX         0.00000  -1.02455   0.00000   1.70269   0.00000
   8        3PY         0.00000   0.00000  -1.02455   0.00000  -1.70269
   9        3PZ        -0.00002   0.00000   0.00000   0.00000  -0.00000
  10        4S          1.20096   0.00000  -0.00000   0.00000   0.00000
  11        4PX         0.00000  -1.48828   0.00000   0.77992   0.00000
  12        4PY         0.00000   0.00000  -1.48828   0.00000  -0.77992
  13        4PZ        -0.00002   0.00000  -0.00000   0.00000   0.00000
  14        5S          1.00600   0.00000   0.00000   0.00000   0.00000
  15        5PX         0.00000  -0.04018   0.00000  -0.44808   0.00000
  16        5PY         0.00000   0.00000  -0.04018   0.00000   0.44808
  17        5PZ        -0.00003   0.00000   0.00000   0.00000   0.00000
  18        6D 0        0.19813   0.00000  -0.00000   0.00000   0.00000
  19        6D+1        0.00000  -0.00000   0.00000   0.00000   0.00000
  20        6D-1       -0.00000   0.00000  -0.00000   0.00000  -0.00000
  21        6D+2        0.00000   0.00000  -0.19574   0.00000   0.06766
  22        6D-2        0.00000  -0.19574   0.00000  -0.06766   0.00000
  23        7D 0       -0.46150   0.00000   0.00000   0.00000   0.00000
  24        7D+1        0.00000   0.00003   0.00000  -0.00009   0.00000
  25        7D-1       -0.00000   0.00000   0.00003   0.00000   0.00009
  26        7D+2        0.00000   0.00000   2.00402   0.00000   0.22997
  27        7D-2        0.00000   2.00402   0.00000  -0.22997   0.00000
  28 2   H  1S         -0.69879   0.00000   0.37966   0.00000  -1.01197
  29        2S          0.54315   0.00000   2.03130   0.00000   3.01197
  30        3S         -1.02045   0.00000   0.62020   0.00000  -1.12841
  31        4PX         0.00000  -0.72220   0.00000  -0.46023   0.00000
  32        4PY         0.45938   0.00000  -1.11762   0.00000  -1.07980
  33        4PZ        -0.00003   0.00000   0.00013   0.00000   0.00002
  34 3   H  1S         -0.69879  -0.32880  -0.18983  -0.87639   0.50599
  35        2S          0.54315  -1.75916  -1.01565   2.60845  -1.50599
  36        3S         -1.02045  -0.53711  -0.31010  -0.97724   0.56421
  37        4PX        -0.39784  -1.01877  -0.17122   0.69480  -0.66685
  38        4PY        -0.22969  -0.17122  -0.82106   0.66685   0.07522
  39        4PZ        -0.00003  -0.00011  -0.00006   0.00002  -0.00001
  40 4   H  1S         -0.69879   0.32880  -0.18983   0.87639   0.50599
  41        2S          0.54315   1.75916  -1.01565  -2.60845  -1.50599
  42        3S         -1.02045   0.53711  -0.31010   0.97724   0.56421
  43        4PX         0.39784  -1.01877   0.17122   0.69480   0.66685
  44        4PY        -0.22969   0.17122  -0.82106  -0.66685   0.07522
  45        4PZ        -0.00003   0.00011  -0.00006  -0.00002  -0.00001
                          36        37        38        39        40
                        (A1)--V   (A1)--V   (E)--V    (E)--V    (E)--V
     Eigenvalues --     2.79144   2.80254   3.04651   3.04651   3.28094
   1 1   C  1S         -0.00002  -0.07601   0.00000   0.00000  -0.00000
   2        2S         -0.00005  -0.20218   0.00000   0.00000  -0.00000
   3        2PX         0.00000   0.00000  -1.19547   0.00000   0.00000
   4        2PY         0.00000  -0.00000   0.00000  -1.19547  -0.00002
   5        2PZ        -1.32393   0.00039   0.00000  -0.00000   0.00000
   6        3S          0.00046   1.67168   0.00000  -0.00000   0.00000
   7        3PX         0.00000   0.00000   2.19853   0.00000   0.00000
   8        3PY        -0.00000   0.00000   0.00000   2.19853   0.00005
   9        3PZ         1.62425  -0.00058   0.00000  -0.00000  -0.00000
  10        4S          0.00067   2.37563   0.00000  -0.00000   0.00000
  11        4PX         0.00000   0.00000   0.18888   0.00000   0.00000
  12        4PY        -0.00000  -0.00000   0.00000   0.18888   0.00001
  13        4PZ        -0.74067   0.00014   0.00000   0.00000   0.00000
  14        5S         -0.00019  -0.72398   0.00000   0.00000   0.00000
  15        5PX         0.00000   0.00000  -0.00066   0.00000   0.00000
  16        5PY         0.00000   0.00000   0.00000  -0.00066  -0.00000
  17        5PZ         0.25002  -0.00005   0.00000  -0.00000  -0.00000
  18        6D 0        0.00001   0.07296   0.00000  -0.00000  -0.00000
  19        6D+1        0.00000   0.00000   0.00003   0.00000   0.00000
  20        6D-1        0.00000  -0.00000   0.00000   0.00003   1.12351
  21        6D+2       -0.00000   0.00000   0.00000   0.53689  -0.00009
  22        6D-2        0.00000   0.00000   0.53689   0.00000   0.00000
  23        7D 0       -0.00022  -0.79896   0.00000   0.00000  -0.00000
  24        7D+1        0.00000   0.00000  -0.00009   0.00000   0.00000
  25        7D-1       -0.00000   0.00000   0.00000  -0.00009  -0.47924
  26        7D+2        0.00000   0.00000   0.00000  -1.19599  -0.00000
  27        7D-2        0.00000   0.00000  -1.19599   0.00000   0.00000
  28 2   H  1S          0.00020   0.64783   0.00000  -0.32710  -0.00001
  29        2S         -0.00067  -2.36533   0.00000  -1.42800  -0.00004
  30        3S          0.00013   0.48809   0.00000   0.26477   0.00000
  31        4PX         0.00000   0.00000   0.06765   0.00000   0.00000
  32        4PY         0.00025   0.91011   0.00000   0.39909   0.00001
  33        4PZ        -0.14564   0.00001   0.00000  -0.00002  -0.03659
  34 3   H  1S          0.00020   0.64783   0.28327   0.16355   0.00001
  35        2S         -0.00067  -2.36533   1.23668   0.71400   0.00002
  36        3S          0.00013   0.48809  -0.22929  -0.13238  -0.00000
  37        4PX        -0.00021  -0.78818   0.31623   0.14352  -0.00000
  38        4PY        -0.00012  -0.45506   0.14352   0.15051   0.00002
  39        4PZ        -0.14564   0.00001   0.00002   0.00001   0.01830
  40 4   H  1S          0.00020   0.64783  -0.28327   0.16355   0.00001
  41        2S         -0.00067  -2.36533  -1.23668   0.71400   0.00002
  42        3S          0.00013   0.48809   0.22929  -0.13238  -0.00000
  43        4PX         0.00021   0.78818   0.31623  -0.14352   0.00000
  44        4PY        -0.00012  -0.45506  -0.14352   0.15051   0.00002
  45        4PZ        -0.14564   0.00001  -0.00002   0.00001   0.01830
[...]
    23    C    1  dyz    Ryd( 3d)     0.00000       1.25408
    24    C    1  dx2y2  Ryd( 4d)     0.00027       3.16297
    25    C    1  dx2y2  Ryd( 3d)     0.00003       1.80772
    26    C    1  dz2    Ryd( 4d)     0.00061       3.01257
    27    C    1  dz2    Ryd( 3d)     0.00009       1.49862
 
    28    H    2  S      Val( 1S)     0.43507       0.00793
    29    H    2  S      Ryd( 3S)     0.00007       1.68014
    30    H    2  S      Ryd( 2S)     0.00002       0.91398
    31    H    2  px     Ryd( 2p)     0.00002       1.78325
    32    H    2  py     Ryd( 2p)     0.00035       2.66496
    33    H    2  pz     Ryd( 2p)     0.00000       1.63427
 
    34    H    3  S      Val( 1S)     0.43507       0.00793
    35    H    3  S      Ryd( 3S)     0.00007       1.68014
    36    H    3  S      Ryd( 2S)     0.00002       0.91398
    37    H    3  px     Ryd( 2p)     0.00027       2.44453
    38    H    3  py     Ryd( 2p)     0.00010       2.00367
    39    H    3  pz     Ryd( 2p)     0.00000       1.63427
 
    40    H    4  S      Val( 1S)     0.43507       0.00793
    41    H    4  S      Ryd( 3S)     0.00007       1.68014
    42    H    4  S      Ryd( 2S)     0.00002       0.91398
    43    H    4  px     Ryd( 2p)     0.00027       2.44453
    44    H    4  py     Ryd( 2p)     0.00010       2.00367
    45    H    4  pz     Ryd( 2p)     0.00000       1.63427

 WARNING:  Population inversion found on atom  C    1
           Population inversion found on atom  H    2
           Population inversion found on atom  H    3
           Population inversion found on atom  H    4


 Summary of Natural Population Analysis:                  
                                                          
                                       Natural Population 
                Natural  -----------------------------------------------
    Atom  No    Charge         Core      Valence    Rydberg      Total
 -----------------------------------------------------------------------
      C    1    0.30658      0.99979     1.69120    0.00243     2.69342
      H    2    0.06447      0.00000     0.43507    0.00046     0.43553
      H    3    0.06447      0.00000     0.43507    0.00046     0.43553
      H    4    0.06447      0.00000     0.43507    0.00046     0.43553
 =======================================================================
   * Total *    0.50000      0.99979     2.99640    0.00381     4.00000

                                 Natural Population      
 --------------------------------------------------------
   Core                       0.99979 ( 99.9791% of   1)
   Valence                    2.99640 ( 99.8800% of   3)
   Natural Minimal Basis      3.99619 ( 99.9048% of   4)
   Natural Rydberg Basis      0.00381 (  0.0952% of   4)
 --------------------------------------------------------

    Atom  No          Natural Electron Configuration
 ----------------------------------------------------------------------------
      C    1      [core]2S( 0.58)2p( 1.11)
      H    2            1S( 0.44)
      H    3            1S( 0.44)
      H    4            1S( 0.44)


 Wiberg bond index matrix in the NAO basis:                                    

     Atom    1       2       3       4
     ---- ------  ------  ------  ------
   1.  C  0.0000  0.2458  0.2458  0.2458
   2.  H  0.2458  0.0000  0.0001  0.0001
   3.  H  0.2458  0.0001  0.0000  0.0001
   4.  H  0.2458  0.0001  0.0001  0.0000


 Wiberg bond index, Totals by atom:                                            

     Atom    1
     ---- ------
   1.  C  0.7373
   2.  H  0.2460
   3.  H  0.2460
   4.  H  0.2460


 Atom-atom overlap-weighted NAO bond order:                                    

     Atom    1       2       3       4
     ---- ------  ------  ------  ------
   1.  C  0.0000  0.4066  0.4066  0.4066
   2.  H  0.4066  0.0000 -0.0011 -0.0011
   3.  H  0.4066 -0.0011  0.0000 -0.0011
   4.  H  0.4066 -0.0011 -0.0011  0.0000


 Atom-atom overlap-weighted NAO bond order, Totals by atom:                    

     Atom    1
     ---- ------
   1.  C  1.2199
   2.  H  0.4044
   3.  H  0.4044
   4.  H  0.4044


 MO bond order:                                                                

     Atom    1       2       3       4
     ---- ------  ------  ------  ------
   1.  C  0.0000  0.6382 -0.2754  0.4060
   2.  H  0.6382  0.0000 -0.0136 -0.0105
   3.  H -0.2754 -0.0136  0.0000 -0.0144
   4.  H  0.4060 -0.0105 -0.0144  0.0000


 MO atomic valencies:                                                          

     Atom    1
     ---- ------
   1.  C  0.7688
   2.  H  0.6141
   3.  H -0.3034
   4.  H  0.3811


 NATURAL BOND ORBITAL ANALYSIS, beta spin orbitals:

                       Occupancies       Lewis Structure    Low   High
           Occ.    -------------------  -----------------   occ   occ
  Cycle   Thresh.   Lewis   Non-Lewis     CR  BD  3C  LP    (L)   (NL)   Dev
 =============================================================================
   1(1)    0.90     3.99921   0.00079      1   3   0   0     0      0    0.00
 -----------------------------------------------------------------------------

 Structure accepted: No low occupancy Lewis orbitals

 --------------------------------------------------------
   Core                      0.99979 ( 99.979% of   1)
   Valence Lewis             2.99942 ( 99.981% of   3)
  ==================       ============================
   Total Lewis               3.99921 ( 99.980% of   4)
  -----------------------------------------------------
   Valence non-Lewis         0.00037 (  0.009% of   4)
   Rydberg non-Lewis         0.00042 (  0.010% of   4)
  ==================       ============================
   Total non-Lewis           0.00079 (  0.020% of   4)
 --------------------------------------------------------


       (Occupancy)   Bond orbital/ Coefficients/ Hybrids
 ---------------------------------------------------------------------------------
     1. (0.99981) BD ( 1) C   1 - H   2  
                ( 56.46%)   0.7514* C   1 s( 33.29%)p 2.00( 66.63%)d 0.00(  0.08%)
                                            0.0000  0.5770  0.0023  0.0000 -0.0000
                                           -0.0000  0.0000 -0.0000 -0.0000  0.8159
                                           -0.0259  0.0021  0.0007 -0.0000  0.0000
                                           -0.0000 -0.0000  0.0000 -0.0000  0.0000
                                            0.0000 -0.0000 -0.0000 -0.0178  0.0062
                                           -0.0187 -0.0071
                ( 43.54%)   0.6598* H   2 s( 99.93%)p 0.00(  0.07%)
                                            0.9996 -0.0031  0.0026  0.0000 -0.0270
                                            0.0000
     2. (0.99981) BD ( 1) C   1 - H   3  
                ( 56.46%)   0.7514* C   1 s( 33.29%)p 2.00( 66.63%)d 0.00(  0.08%)
                                            0.0000  0.5770  0.0023  0.0000 -0.0000
                                           -0.7066  0.0224 -0.0018 -0.0006 -0.4079
                                            0.0129 -0.0011 -0.0003 -0.0000  0.0000
                                           -0.0000 -0.0000  0.0154 -0.0054  0.0000
                                            0.0000  0.0000  0.0000  0.0089 -0.0031
                                           -0.0187 -0.0071
                ( 43.54%)   0.6598* H   3 s( 99.93%)p 0.00(  0.07%)
                                            0.9996 -0.0031  0.0026  0.0234  0.0135
                                            0.0000
     3. (0.99981) BD ( 1) C   1 - H   4  
                ( 56.46%)   0.7514* C   1 s( 33.29%)p 2.00( 66.63%)d 0.00(  0.08%)
                                            0.0000  0.5770  0.0023  0.0000 -0.0000
                                            0.7066 -0.0224  0.0018  0.0006 -0.4079
                                            0.0129 -0.0011 -0.0003 -0.0000  0.0000
                                           -0.0000 -0.0000 -0.0154  0.0054 -0.0000
                                           -0.0000  0.0000  0.0000  0.0089 -0.0031
                                           -0.0187 -0.0071
                ( 43.54%)   0.6598* H   4 s( 99.93%)p 0.00(  0.07%)
                                            0.9996 -0.0031  0.0026 -0.0234  0.0135
                                            0.0000
     4. (0.99979) CR ( 1) C   1           s(100.00%)
                                            1.0000 -0.0000 -0.0000 -0.0000  0.0000
                                           -0.0000  0.0000 -0.0000 -0.0000  0.0000
                                           -0.0000  0.0000  0.0000  0.0000 -0.0000
                                            0.0000  0.0000  0.0000 -0.0000  0.0000
                                            0.0000 -0.0000 -0.0000 -0.0000  0.0000
                                            0.0000  0.0000
     5. (0.00000) LP*( 1) C   1           s(100.00%)p 0.00(  0.00%)d 0.00(  0.00%)
     6. (0.00000) RY*( 1) C   1           s(100.00%)
     7. (0.00000) RY*( 2) C   1           s(100.00%)
     8. (0.00000) RY*( 3) C   1           s(  0.00%)p 1.00(100.00%)d 0.00(  0.00%)
     9. (0.00000) RY*( 4) C   1           s(  0.00%)p 1.00(100.00%)
    10. (0.00000) RY*( 5) C   1           s(  0.00%)p 1.00(100.00%)
    11. (0.00000) RY*( 6) C   1           s(  0.00%)p 1.00(100.00%)d 0.00(  0.00%)
    12. (0.00000) RY*( 7) C   1           s(  0.00%)p 1.00(100.00%)
    13. (0.00000) RY*( 8) C   1           s(  0.00%)p 1.00(100.00%)
    14. (0.00000) RY*( 9) C   1           s(  0.00%)p 1.00(100.00%)
    15. (0.00000) RY*(10) C   1           s(  0.00%)p 1.00(100.00%)
    16. (0.00000) RY*(11) C   1           s(  0.00%)p 1.00(100.00%)
    17. (0.00000) RY*(12) C   1           s(  0.00%)p 1.00(100.00%)
    18. (0.00000) RY*(13) C   1           s(  0.00%)p 1.00(  0.05%)d99.99( 99.95%)
    19. (0.00000) RY*(14) C   1           s(  0.00%)p 0.00(  0.01%)d 1.00( 99.99%)
    20. (0.00000) RY*(15) C   1           s(  0.00%)p 0.00(  0.00%)d 1.00(100.00%)
    21. (0.00000) RY*(16) C   1           s(  0.00%)p 0.00(  0.00%)d 1.00(100.00%)
    22. (0.00000) RY*(17) C   1           s(  0.00%)p 0.00(  0.00%)d 1.00(100.00%)
    23. (0.00000) RY*(18) C   1           s(  0.00%)p 0.00(  0.00%)d 1.00(100.00%)
    24. (0.00000) RY*(19) C   1           s(  0.00%)p 1.00(  0.05%)d99.99( 99.95%)
    25. (0.00000) RY*(20) C   1           s(  0.00%)p 0.00(  0.01%)d 1.00( 99.99%)
    26. (0.00000) RY*(21) C   1           s(  0.11%)p 0.00(  0.00%)d99.99( 99.89%)
    27. (0.00000) RY*(22) C   1           s(  0.01%)p 0.00(  0.00%)d99.99( 99.99%)
    28. (0.00007) RY*( 1) H   2           s( 80.01%)p 0.25( 19.99%)
    29. (0.00005) RY*( 2) H   2           s( 50.43%)p 0.98( 49.57%)
    30. (0.00002) RY*( 3) H   2           s(  0.00%)p 1.00(100.00%)
    31. (0.00000) RY*( 4) H   2           s( 69.64%)p 0.44( 30.36%)
    32. (0.00000) RY*( 5) H   2           s(  0.00%)p 1.00(100.00%)
    33. (0.00007) RY*( 1) H   3           s( 80.01%)p 0.25( 19.99%)
    34. (0.00005) RY*( 2) H   3           s( 50.43%)p 0.98( 49.57%)
    35. (0.00002) RY*( 3) H   3           s(  0.00%)p 1.00(100.00%)
    36. (0.00000) RY*( 4) H   3           s( 69.64%)p 0.44( 30.36%)
    37. (0.00000) RY*( 5) H   3           s(  0.00%)p 1.00(100.00%)
    38. (0.00007) RY*( 1) H   4           s( 80.01%)p 0.25( 19.99%)
    39. (0.00005) RY*( 2) H   4           s( 50.43%)p 0.98( 49.57%)
    40. (0.00002) RY*( 3) H   4           s(  0.00%)p 1.00(100.00%)
    41. (0.00000) RY*( 4) H   4           s( 69.64%)p 0.44( 30.36%)
    42. (0.00000) RY*( 5) H   4           s(  0.00%)p 1.00(100.00%)
    43. (0.00012) BD*( 1) C   1 - H   2  
                ( 43.54%)   0.6598* C   1 s( 33.29%)p 2.00( 66.63%)d 0.00(  0.08%)
                                           -0.0000 -0.5770 -0.0023 -0.0000  0.0000
                                            0.0000 -0.0000  0.0000  0.0000 -0.8159
                                            0.0259 -0.0021 -0.0007  0.0000 -0.0000
                                            0.0000  0.0000 -0.0000  0.0000 -0.0000
                                           -0.0000  0.0000  0.0000  0.0178 -0.0062
                                            0.0187  0.0071
                ( 56.46%)  -0.7514* H   2 s( 99.93%)p 0.00(  0.07%)
                                           -0.9996  0.0031 -0.0026 -0.0000  0.0270
                                           -0.0000
    44. (0.00012) BD*( 1) C   1 - H   3  
                ( 43.54%)   0.6598* C   1 s( 33.29%)p 2.00( 66.63%)d 0.00(  0.08%)
                                           -0.0000 -0.5770 -0.0023 -0.0000  0.0000
                                            0.7066 -0.0224  0.0018  0.0006  0.4079
                                           -0.0129  0.0011  0.0003  0.0000 -0.0000
                                            0.0000  0.0000 -0.0154  0.0054 -0.0000
                                           -0.0000 -0.0000 -0.0000 -0.0089  0.0031
                                            0.0187  0.0071
                ( 56.46%)  -0.7514* H   3 s( 99.93%)p 0.00(  0.07%)
                                           -0.9996  0.0031 -0.0026 -0.0234 -0.0135
                                           -0.0000
    45. (0.00012) BD*( 1) C   1 - H   4  
                ( 43.54%)   0.6598* C   1 s( 33.29%)p 2.00( 66.63%)d 0.00(  0.08%)
                                           -0.0000 -0.5770 -0.0023 -0.0000  0.0000
                                           -0.7066  0.0224 -0.0018 -0.0006  0.4079
                                           -0.0129  0.0011  0.0003  0.0000 -0.0000
                                            0.0000  0.0000  0.0154 -0.0054  0.0000
                                            0.0000 -0.0000 -0.0000 -0.0089  0.0031
                                            0.0187  0.0071
                ( 56.46%)  -0.7514* H   4 s( 99.93%)p 0.00(  0.07%)
                                           -0.9996  0.0031 -0.0026  0.0234 -0.0135
                                           -0.0000


 NHO Directionality and "Bond Bending" (deviations from line of nuclear centers)

         [Thresholds for printing:  angular deviation  >  1.0 degree]
                                    hybrid p-character > 25.0%
                                    orbital occupancy  >  0.10e

                                Line of Centers        Hybrid 1              Hybrid 2
                                ---------------  -------------------   ------------------
                NBO               Theta   Phi    Theta   Phi    Dev    Theta   Phi    Dev
 ========================================================================================
    None exceeding thresholds


 Second Order Perturbation Theory Analysis of Fock Matrix in NBO Basis

     Threshold for printing:   0.25 kcal/mol
                                                                              E(2)  E(j)-E(i) F(i,j)
         Donor NBO (i)                     Acceptor NBO (j)                 kcal/mol   a.u.    a.u. 
 ===================================================================================================

 within unit  1
   4. CR (   1) C   1                / 28. RY*(   1) H   2                    0.46   11.72    0.092
   4. CR (   1) C   1                / 33. RY*(   1) H   3                    0.46   11.72    0.092
   4. CR (   1) C   1                / 38. RY*(   1) H   4                    0.46   11.72    0.092


 Natural Bond Orbitals (Summary):

                                                            Principal Delocalizations
           NBO                        Occupancy    Energy   (geminal,vicinal,remote)
 ====================================================================================
 Molecular unit  1  (CH3)
     1. BD (   1) C   1 - H   2          0.99981    -0.53351   
     2. BD (   1) C   1 - H   3          0.99981    -0.53351   
     3. BD (   1) C   1 - H   4          0.99981    -0.53351   
     4. CR (   1) C   1                  0.99979   -10.05216  28(v),33(v),38(v)
     5. LP*(   1) C   1                  0.00000     0.83905   
     6. RY*(   1) C   1                  0.00000     2.20066   
     7. RY*(   2) C   1                  0.00000    21.25519   
     8. RY*(   3) C   1                  0.00000     0.45720   
     9. RY*(   4) C   1                  0.00000     1.60629   
    10. RY*(   5) C   1                  0.00000     1.70066   
    11. RY*(   6) C   1                  0.00000     0.45720   
    12. RY*(   7) C   1                  0.00000     1.60629   
    13. RY*(   8) C   1                  0.00000     1.70066   
    14. RY*(   9) C   1                  0.00000    -0.05347   
    15. RY*(  10) C   1                  0.00000     0.39028   
    16. RY*(  11) C   1                  0.00000     1.36158   
    17. RY*(  12) C   1                  0.00000     1.67906   
    18. RY*(  13) C   1                  0.00000     3.15984   
    19. RY*(  14) C   1                  0.00000     1.80789   
    20. RY*(  15) C   1                  0.00000     2.83364   
    21. RY*(  16) C   1                  0.00000     1.25408   
    22. RY*(  17) C   1                  0.00000     2.83364   
    23. RY*(  18) C   1                  0.00000     1.25408   
    24. RY*(  19) C   1                  0.00000     3.15984   
    25. RY*(  20) C   1                  0.00000     1.80789   
    26. RY*(  21) C   1                  0.00000     3.01002   
    27. RY*(  22) C   1                  0.00000     1.49811   
    28. RY*(   1) H   2                  0.00007     1.67010   
    29. RY*(   2) H   2                  0.00005     2.57819   
    30. RY*(   3) H   2                  0.00002     1.78325   
    31. RY*(   4) H   2                  0.00000     1.01062   
    32. RY*(   5) H   2                  0.00000     1.63427   
    33. RY*(   1) H   3                  0.00007     1.67010   
    34. RY*(   2) H   3                  0.00005     2.57819   
    35. RY*(   3) H   3                  0.00002     1.78325   
    36. RY*(   4) H   3                  0.00000     1.01062   
    37. RY*(   5) H   3                  0.00000     1.63427   
    38. RY*(   1) H   4                  0.00007     1.67010   
    39. RY*(   2) H   4                  0.00005     2.57819   
    40. RY*(   3) H   4                  0.00002     1.78325   
    41. RY*(   4) H   4                  0.00000     1.01062   
    42. RY*(   5) H   4                  0.00000     1.63427   
    43. BD*(   1) C   1 - H   2          0.00012     0.42300   
    44. BD*(   1) C   1 - H   3          0.00012     0.42300   
    45. BD*(   1) C   1 - H   4          0.00012     0.42300   
       -------------------------------
              Total Lewis    3.99921  ( 99.9802%)
        Valence non-Lewis    0.00037  (  0.0093%)
        Rydberg non-Lewis    0.00042  (  0.0105%)
       -------------------------------
            Total unit  1    4.00000  (100.0000%)
           Charge unit  1    0.50000
 Leave Link  607 at Wed Sep  5 16:41:10 2018, MaxMem=   805306368 cpu:               4.6 elap:               0.6
 (Enter /home/g16/l9999.exe)
 1\1\GINC-PC2\Stability\UB3LYP\6-311+G(2d,p)\C1H3(2)\MASKER\05-Sep-2018
 \0\\#p b3lyp/6-311+g(2d,p) pop=(full,nboread) stable=opt g09def\\CH3-c
 1-1sp 1\\0,2\C,0,0.,0.,0.000016\H,0,0.,1.079628,-0.000032\H,0,-0.93498
 5,-0.539814,-0.000032\H,0,0.934985,-0.539814,-0.000032\\Version=ES64L-
 G16RevA.03\State=2-A1\HF=-39.8561209\S2=0.753528\S2-1=0.\S2A=0.750006\
 RMSD=1.856e-09\Dipole=0.,0.,-0.0000416\Quadrupole=0.4797356,0.4797356,
 -0.9594711,0.,0.,0.\PG=C03V [C3(C1),3SGV(H1)]\\@


 We make a living by what we get,
 we make a life by what we give.
                   -- Sir Winston Churchill
 Job cpu time:       0 days  0 hours  0 minutes 21.3 seconds.
 Elapsed time:       0 days  0 hours  0 minutes  2.7 seconds.
 File lengths (MBytes):  RWF=      9 Int=      0 D2E=      0 Chk=      1 Scr=      1
 Normal termination of Gaussian 16 at Wed Sep  5 16:41:11 2018.
