 Entering Gaussian System, Link 0=g16
 Input=CHF-c1-1sp.gjf
 Output=CHF-c1-1sp.log
 Initial command:
 /home/g16/l1.exe "/home/masker/scratch/Gau-28908.inp" -scrdir="/home/masker/scratch/"
 Entering Link 1 = /home/g16/l1.exe PID=     28909.
  
 Copyright (c) 1988,1990,1992,1993,1995,1998,2003,2009,2016,
            Gaussian, Inc.  All Rights Reserved.
  
 This is part of the Gaussian(R) 16 program.  It is based on
 the Gaussian(R) 09 system (copyright 2009, Gaussian, Inc.),
 the Gaussian(R) 03 system (copyright 2003, Gaussian, Inc.),
 the Gaussian(R) 98 system (copyright 1998, Gaussian, Inc.),
 the Gaussian(R) 94 system (copyright 1995, Gaussian, Inc.),
 the Gaussian 92(TM) system (copyright 1992, Gaussian, Inc.),
 the Gaussian 90(TM) system (copyright 1990, Gaussian, Inc.),
 the Gaussian 88(TM) system (copyright 1988, Gaussian, Inc.),
 the Gaussian 86(TM) system (copyright 1986, Carnegie Mellon
 University), and the Gaussian 82(TM) system (copyright 1983,
 Carnegie Mellon University). Gaussian is a federally registered
 trademark of Gaussian, Inc.
  
 This software contains proprietary and confidential information,
 including trade secrets, belonging to Gaussian, Inc.
  
 This software is provided under written license and may be
 used, copied, transmitted, or stored only in accord with that
 written license.
  
 The following legend is applicable only to US Government
 contracts under FAR:
  
                    RESTRICTED RIGHTS LEGEND
  
 Use, reproduction and disclosure by the US Government is
 subject to restrictions as set forth in subparagraphs (a)
 and (c) of the Commercial Computer Software - Restricted
 Rights clause in FAR 52.227-19.
  
 Gaussian, Inc.
 340 Quinnipiac St., Bldg. 40, Wallingford CT 06492
  
  
 ---------------------------------------------------------------
 Warning -- This program may not be used in any manner that
 competes with the business of Gaussian, Inc. or will provide
 assistance to any competitor of Gaussian, Inc.  The licensee
 of this program is prohibited from giving any competitor of
 Gaussian, Inc. access to this program.  By using this program,
 the user acknowledges that Gaussian, Inc. is engaged in the
 business of creating and licensing software in the field of
 computational chemistry and represents and warrants to the
 licensee that it is not a competitor of Gaussian, Inc. and that
 it will not use this program in any manner prohibited above.
 ---------------------------------------------------------------
  

 Cite this work as:
 Gaussian 16, Revision A.03,
 M. J. Frisch, G. W. Trucks, H. B. Schlegel, G. E. Scuseria, 
 M. A. Robb, J. R. Cheeseman, G. Scalmani, V. Barone, 
 G. A. Petersson, H. Nakatsuji, X. Li, M. Caricato, A. V. Marenich, 
 J. Bloino, B. G. Janesko, R. Gomperts, B. Mennucci, H. P. Hratchian, 
 J. V. Ortiz, A. F. Izmaylov, J. L. Sonnenberg, D. Williams-Young, 
 F. Ding, F. Lipparini, F. Egidi, J. Goings, B. Peng, A. Petrone, 
 T. Henderson, D. Ranasinghe, V. G. Zakrzewski, J. Gao, N. Rega, 
 G. Zheng, W. Liang, M. Hada, M. Ehara, K. Toyota, R. Fukuda, 
 J. Hasegawa, M. Ishida, T. Nakajima, Y. Honda, O. Kitao, H. Nakai, 
 T. Vreven, K. Throssell, J. A. Montgomery, Jr., J. E. Peralta, 
 F. Ogliaro, M. J. Bearpark, J. J. Heyd, E. N. Brothers, K. N. Kudin, 
 V. N. Staroverov, T. A. Keith, R. Kobayashi, J. Normand, 
 K. Raghavachari, A. P. Rendell, J. C. Burant, S. S. Iyengar, 
 J. Tomasi, M. Cossi, J. M. Millam, M. Klene, C. Adamo, R. Cammi, 
 J. W. Ochterski, R. L. Martin, K. Morokuma, O. Farkas, 
 J. B. Foresman, and D. J. Fox, Gaussian, Inc., Wallingford CT, 2016.
 
 ******************************************
 Gaussian 16:  ES64L-G16RevA.03 25-Dec-2016
                 5-Sep-2018 
 ******************************************
 %nprocshared=8
 Will use up to    8 processors via shared memory.
 %mem=6GB
 %chk=CHF-c1-1sp.chk
 -----------------------------------------------------------
 #p b3lyp/6-311+g(2d,p) pop=(full,nboread) stable=opt g09def
 -----------------------------------------------------------
 1/38=1,158=3,167=1,172=1/1;
 2/12=2,17=6,18=5,40=1/2;
 3/5=4,6=6,7=112,11=2,25=1,27=10,30=1,74=-5,75=-4,158=3/1,2,3;
 4/60=-1/1;
 5/5=2,38=5,87=10/2;
 6/7=3,28=1,40=2,87=10/1,7;
 8/6=1,10=90,11=11,87=10/1;
 9/8=-3,42=1,46=1,87=10/14;
 5/5=2,8=3,17=40,38=5,87=10/8(-2);
 6/7=3,28=1,40=2,87=10/1,7;
 99/5=1,9=1/99;
 Using 2006 physical constants.
 Leave Link    1 at Wed Sep  5 16:47:55 2018, MaxMem=   805306368 cpu:               0.3 elap:               0.0
 (Enter /home/g16/l101.exe)
 ------------
 CHF-c1-1sp 1
 ------------
 Symbolic Z-matrix:
 Charge =  0 Multiplicity = 2
 C                     0.02887   0.65718   0. 
 H                    -0.2165    1.11372   0.95353 
 H                    -0.2165    1.11372  -0.95353 
 F                     0.02887  -0.68561   0. 
 
 ITRead=  0  0  0  0
 MicOpt= -1 -1 -1 -1
 NAtoms=      4 NQM=        4 NQMF=       0 NMMI=      0 NMMIF=      0
                NMic=       0 NMicF=      0.
                    Isotopes and Nuclear Properties:
 (Nuclear quadrupole moments (NQMom) in fm**2, nuclear magnetic moments (NMagM)
  in nuclear magnetons)

  Atom         1           2           3           4
 IAtWgt=          12           1           1          19
 AtmWgt=  12.0000000   1.0078250   1.0078250  18.9984032
 NucSpn=           0           1           1           1
 AtZEff=  -0.0000000  -0.0000000  -0.0000000  -0.0000000
 NQMom=    0.0000000   0.0000000   0.0000000   0.0000000
 NMagM=    0.0000000   2.7928460   2.7928460   2.6288670
 AtZNuc=   6.0000000   1.0000000   1.0000000   9.0000000
 Leave Link  101 at Wed Sep  5 16:47:56 2018, MaxMem=   805306368 cpu:               0.2 elap:               0.0
 (Enter /home/g16/l202.exe)
                          Input orientation:                          
 ---------------------------------------------------------------------
 Center     Atomic      Atomic             Coordinates (Angstroms)
 Number     Number       Type             X           Y           Z
 ---------------------------------------------------------------------
      1          6           0        0.028866    0.657177    0.000000
      2          1           0       -0.216498    1.113724    0.953534
      3          1           0       -0.216498    1.113724   -0.953534
      4          9           0        0.028866   -0.685612    0.000000
 ---------------------------------------------------------------------
                    Distance matrix (angstroms):
                    1          2          3          4
     1  C    0.000000
     2  H    1.085295   0.000000
     3  H    1.085295   1.907068   0.000000
     4  F    1.342789   2.051107   2.051107   0.000000
 Stoichiometry    CH2F(2)
 Framework group  CS[SG(CF),X(H2)]
 Deg. of freedom     4
 Full point group                 CS      NOp   2
 Largest Abelian subgroup         CS      NOp   2
 Largest concise Abelian subgroup CS      NOp   2
                         Standard orientation:                         
 ---------------------------------------------------------------------
 Center     Atomic      Atomic             Coordinates (Angstroms)
 Number     Number       Type             X           Y           Z
 ---------------------------------------------------------------------
      1          6           0        0.028866    0.657177   -0.000000
      2          1           0       -0.216498    1.113724    0.953534
      3          1           0       -0.216498    1.113724   -0.953534
      4          9           0        0.028866   -0.685612    0.000000
 ---------------------------------------------------------------------
 Rotational constants (GHZ):         262.5452942          30.6785333          27.7470051
 Leave Link  202 at Wed Sep  5 16:47:56 2018, MaxMem=   805306368 cpu:               0.2 elap:               0.0
 (Enter /home/g16/l301.exe)
 Standard basis: 6-311+G(2d,p) (5D, 7F)
 Ernie: Thresh=  0.10000D-02 Tol=  0.10000D-05 Strict=F.
 There are    48 symmetry adapted cartesian basis functions of A'  symmetry.
 There are    22 symmetry adapted cartesian basis functions of A"  symmetry.
 There are    44 symmetry adapted basis functions of A'  symmetry.
 There are    22 symmetry adapted basis functions of A"  symmetry.
    66 basis functions,   100 primitive gaussians,    70 cartesian basis functions
     9 alpha electrons        8 beta electrons
       nuclear repulsion energy        32.0532261853 Hartrees.
 IExCor=  402 DFT=T Ex+Corr=B3LYP ExCW=0 ScaHFX=  0.200000
 ScaDFX=  0.800000  0.720000  1.000000  0.810000 ScalE2=  1.000000  1.000000
 IRadAn=      4 IRanWt=     -1 IRanGd=            0 ICorTp=0 IEmpDi=  4
 NAtoms=    4 NActive=    4 NUniq=    3 SFac= 1.78D+00 NAtFMM=   60 NAOKFM=F Big=F
 Integral buffers will be    131072 words long.
 Raffenetti 2 integral format.
 Two-electron integral symmetry is turned on.
 Leave Link  301 at Wed Sep  5 16:47:56 2018, MaxMem=   805306368 cpu:               0.1 elap:               0.0
 (Enter /home/g16/l302.exe)
 NPDir=0 NMtPBC=     1 NCelOv=     1 NCel=       1 NClECP=     1 NCelD=      1
         NCelK=      1 NCelE2=     1 NClLst=     1 CellRange=     0.0.
 One-electron integrals computed using PRISM.
 One-electron integral symmetry used in STVInt
 NBasis=    66 RedAO= T EigKep=  3.17D-03  NBF=    44    22
 NBsUse=    66 1.00D-06 EigRej= -1.00D+00 NBFU=    44    22
 Precomputing XC quadrature grid using
 IXCGrd= 4 IRadAn=           4 IRanWt=          -1 IRanGd=           0 AccXCQ= 1.00D-10.
 Generated NRdTot=       0 NPtTot=           0 NUsed=           0 NTot=          32
 NSgBfM=    70    70    70    70    70 MxSgAt=     4 MxSgA2=     4.
 Leave Link  302 at Wed Sep  5 16:47:56 2018, MaxMem=   805306368 cpu:               0.4 elap:               0.1
 (Enter /home/g16/l303.exe)
 DipDrv:  MaxL=1.
 Leave Link  303 at Wed Sep  5 16:47:56 2018, MaxMem=   805306368 cpu:               0.1 elap:               0.0
 (Enter /home/g16/l401.exe)
 ExpMin= 4.38D-02 ExpMax= 1.14D+04 ExpMxC= 1.72D+03 IAcc=2 IRadAn=         4 AccDes= 0.00D+00
 Harris functional with IExCor=  402 and IRadAn=      -1 diagonalized for initial guess.
 HarFok:  IExCor=  402 AccDes= 0.00D+00 IRadAn=        -1 IDoV= 1 UseB2=F ITyADJ=14
 ICtDFT=  3500011 ScaDFX=  1.000000  1.000000  1.000000  1.000000
 FoFCou: FMM=F IPFlag=           0 FMFlag=      100000 FMFlg1=           0
         NFxFlg=           0 DoJE=T BraDBF=F KetDBF=T FulRan=T
         wScrn=  0.000000 ICntrl=       500 IOpCl=  0 I1Cent=   200000004 NGrid=           0
         NMat0=    1 NMatS0=      1 NMatT0=    0 NMatD0=    1 NMtDS0=    0 NMtDT0=    0
 Petite list used in FoFCou.
 Harris En= -139.090072448007    
 JPrj=0 DoOrth=F DoCkMO=F.
 Initial guess orbital symmetries:
 Alpha Orbitals:
       Occupied  (A') (A') (A') (A') (A') (A") (A') (A") (A')
       Virtual   (A') (A') (A") (A') (A') (A') (A") (A') (A') (A")
                 (A') (A') (A") (A') (A') (A") (A") (A') (A') (A')
                 (A") (A') (A') (A") (A') (A") (A') (A") (A') (A')
                 (A') (A") (A") (A') (A') (A") (A') (A") (A') (A')
                 (A") (A') (A") (A') (A') (A") (A') (A') (A") (A')
                 (A") (A') (A') (A") (A') (A') (A')
 Beta  Orbitals:
       Occupied  (A') (A') (A') (A') (A') (A") (A') (A")
       Virtual   (A') (A') (A') (A") (A') (A') (A') (A") (A') (A')
                 (A") (A') (A') (A") (A') (A') (A") (A") (A') (A')
                 (A') (A") (A') (A') (A") (A') (A") (A') (A") (A')
                 (A') (A') (A") (A") (A') (A') (A") (A') (A") (A')
                 (A') (A") (A') (A") (A') (A') (A") (A') (A') (A")
                 (A') (A") (A') (A') (A") (A') (A') (A')
 The electronic state of the initial guess is 2-A'.
 Initial guess <Sx>= 0.0000 <Sy>= 0.0000 <Sz>= 0.5000 <S**2>= 0.7500 S= 0.5000
 Leave Link  401 at Wed Sep  5 16:47:56 2018, MaxMem=   805306368 cpu:               0.6 elap:               0.1
 (Enter /home/g16/l502.exe)
 Keep R1 and R2 ints in memory in symmetry-blocked form, NReq=9607042.
 FoFCou: FMM=F IPFlag=           0 FMFlag=           0 FMFlg1=           0
         NFxFlg=           0 DoJE=F BraDBF=F KetDBF=F FulRan=T
         wScrn=  0.000000 ICntrl=       600 IOpCl=  0 I1Cent=           0 NGrid=           0
         NMat0=    1 NMatS0=   2211 NMatT0=    0 NMatD0=    1 NMtDS0=    0 NMtDT0=    0
 Petite list used in FoFCou.
 UHF open shell SCF:
 Using DIIS extrapolation, IDIIS=  1040.
 NGot=   805306368 LenX=   802805558 LenY=   802800217
 Requested convergence on RMS density matrix=1.00D-08 within 128 cycles.
 Requested convergence on MAX density matrix=1.00D-06.
 Requested convergence on             energy=1.00D-06.
 No special actions if energy rises.

 Cycle   1  Pass 1  IDiag  1:
 E= -139.103192591408    
 DIIS: error= 1.79D-02 at cycle   1 NSaved=   1.
 NSaved= 1 IEnMin= 1 EnMin= -139.103192591408     IErMin= 1 ErrMin= 1.79D-02
 ErrMax= 1.79D-02  0.00D+00 EMaxC= 1.00D-01 BMatC= 9.49D-02 BMatP= 9.49D-02
 IDIUse=3 WtCom= 8.21D-01 WtEn= 1.79D-01
 Coeff-Com:  0.100D+01
 Coeff-En:   0.100D+01
 Coeff:      0.100D+01
 Gap=     0.219 Goal=   None    Shift=    0.000
 Gap=     0.318 Goal=   None    Shift=    0.000
 GapD=    0.219 DampG=1.000 DampE=0.500 DampFc=0.5000 IDamp=-1.
 Damping current iteration by 5.00D-01
 RMSDP=2.39D-03 MaxDP=6.48D-02              OVMax= 6.98D-02

 Cycle   2  Pass 1  IDiag  1:
 E= -139.112799352533     Delta-E=       -0.009606761125 Rises=F Damp=T
 DIIS: error= 5.45D-03 at cycle   2 NSaved=   2.
 NSaved= 2 IEnMin= 2 EnMin= -139.112799352533     IErMin= 2 ErrMin= 5.45D-03
 ErrMax= 5.45D-03  0.00D+00 EMaxC= 1.00D-01 BMatC= 8.95D-03 BMatP= 9.49D-02
 IDIUse=3 WtCom= 9.46D-01 WtEn= 5.45D-02
 Coeff-Com: -0.182D+00 0.118D+01
 Coeff-En:   0.000D+00 0.100D+01
 Coeff:     -0.173D+00 0.117D+01
 Gap=     0.248 Goal=   None    Shift=    0.000
 Gap=     0.303 Goal=   None    Shift=    0.000
 RMSDP=6.42D-04 MaxDP=1.30D-02 DE=-9.61D-03 OVMax= 5.19D-02

 Cycle   3  Pass 1  IDiag  1:
 E= -139.121831390683     Delta-E=       -0.009032038150 Rises=F Damp=F
 DIIS: error= 3.86D-03 at cycle   3 NSaved=   3.
 NSaved= 3 IEnMin= 3 EnMin= -139.121831390683     IErMin= 3 ErrMin= 3.86D-03
 ErrMax= 3.86D-03  0.00D+00 EMaxC= 1.00D-01 BMatC= 2.61D-03 BMatP= 8.95D-03
 IDIUse=3 WtCom= 9.61D-01 WtEn= 3.86D-02
 Coeff-Com: -0.145D+00 0.427D+00 0.718D+00
 Coeff-En:   0.000D+00 0.000D+00 0.100D+01
 Coeff:     -0.139D+00 0.411D+00 0.728D+00
 Gap=     0.245 Goal=   None    Shift=    0.000
 Gap=     0.301 Goal=   None    Shift=    0.000
 RMSDP=2.51D-04 MaxDP=4.42D-03 DE=-9.03D-03 OVMax= 8.31D-03

 Cycle   4  Pass 1  IDiag  1:
 E= -139.122241772249     Delta-E=       -0.000410381566 Rises=F Damp=F
 DIIS: error= 1.49D-03 at cycle   4 NSaved=   4.
 NSaved= 4 IEnMin= 4 EnMin= -139.122241772249     IErMin= 4 ErrMin= 1.49D-03
 ErrMax= 1.49D-03  0.00D+00 EMaxC= 1.00D-01 BMatC= 5.21D-04 BMatP= 2.61D-03
 IDIUse=3 WtCom= 9.85D-01 WtEn= 1.49D-02
 Coeff-Com: -0.555D-01 0.138D+00 0.370D+00 0.548D+00
 Coeff-En:   0.000D+00 0.000D+00 0.000D+00 0.100D+01
 Coeff:     -0.546D-01 0.136D+00 0.364D+00 0.554D+00
 Gap=     0.245 Goal=   None    Shift=    0.000
 Gap=     0.303 Goal=   None    Shift=    0.000
 RMSDP=9.71D-05 MaxDP=2.36D-03 DE=-4.10D-04 OVMax= 6.26D-03

 Cycle   5  Pass 1  IDiag  1:
 E= -139.122321279698     Delta-E=       -0.000079507449 Rises=F Damp=F
 DIIS: error= 8.66D-04 at cycle   5 NSaved=   5.
 NSaved= 5 IEnMin= 5 EnMin= -139.122321279698     IErMin= 5 ErrMin= 8.66D-04
 ErrMax= 8.66D-04  0.00D+00 EMaxC= 1.00D-01 BMatC= 9.66D-05 BMatP= 5.21D-04
 IDIUse=3 WtCom= 9.91D-01 WtEn= 8.66D-03
 Coeff-Com: -0.269D-02-0.182D-01 0.458D-01 0.312D+00 0.663D+00
 Coeff-En:   0.000D+00 0.000D+00 0.000D+00 0.843D-01 0.916D+00
 Coeff:     -0.267D-02-0.180D-01 0.454D-01 0.310D+00 0.666D+00
 Gap=     0.245 Goal=   None    Shift=    0.000
 Gap=     0.303 Goal=   None    Shift=    0.000
 RMSDP=4.55D-05 MaxDP=1.24D-03 DE=-7.95D-05 OVMax= 2.06D-03

 Cycle   6  Pass 1  IDiag  1:
 E= -139.122339591008     Delta-E=       -0.000018311310 Rises=F Damp=F
 DIIS: error= 1.24D-04 at cycle   6 NSaved=   6.
 NSaved= 6 IEnMin= 6 EnMin= -139.122339591008     IErMin= 6 ErrMin= 1.24D-04
 ErrMax= 1.24D-04  0.00D+00 EMaxC= 1.00D-01 BMatC= 1.24D-06 BMatP= 9.66D-05
 IDIUse=3 WtCom= 9.99D-01 WtEn= 1.24D-03
 Coeff-Com:  0.527D-02-0.963D-02-0.411D-01-0.809D-01-0.847D-01 0.121D+01
 Coeff-En:   0.000D+00 0.000D+00 0.000D+00 0.000D+00 0.000D+00 0.100D+01
 Coeff:      0.526D-02-0.962D-02-0.410D-01-0.808D-01-0.846D-01 0.121D+01
 Gap=     0.246 Goal=   None    Shift=    0.000
 Gap=     0.303 Goal=   None    Shift=    0.000
 RMSDP=1.60D-05 MaxDP=4.22D-04 DE=-1.83D-05 OVMax= 7.44D-04

 Cycle   7  Pass 1  IDiag  1:
 E= -139.122340520148     Delta-E=       -0.000000929140 Rises=F Damp=F
 DIIS: error= 1.83D-05 at cycle   7 NSaved=   7.
 NSaved= 7 IEnMin= 7 EnMin= -139.122340520148     IErMin= 7 ErrMin= 1.83D-05
 ErrMax= 1.83D-05  0.00D+00 EMaxC= 1.00D-01 BMatC= 4.10D-08 BMatP= 1.24D-06
 IDIUse=1 WtCom= 1.00D+00 WtEn= 0.00D+00
 Coeff-Com: -0.475D-03 0.200D-02 0.185D-02-0.347D-02-0.220D-01-0.102D+00
 Coeff-Com:  0.112D+01
 Coeff:     -0.475D-03 0.200D-02 0.185D-02-0.347D-02-0.220D-01-0.102D+00
 Coeff:      0.112D+01
 Gap=     0.246 Goal=   None    Shift=    0.000
 Gap=     0.303 Goal=   None    Shift=    0.000
 RMSDP=2.33D-06 MaxDP=4.61D-05 DE=-9.29D-07 OVMax= 7.38D-05

 Cycle   8  Pass 1  IDiag  1:
 E= -139.122340541895     Delta-E=       -0.000000021746 Rises=F Damp=F
 DIIS: error= 3.68D-06 at cycle   8 NSaved=   8.
 NSaved= 8 IEnMin= 8 EnMin= -139.122340541895     IErMin= 8 ErrMin= 3.68D-06
 ErrMax= 3.68D-06  0.00D+00 EMaxC= 1.00D-01 BMatC= 2.64D-09 BMatP= 4.10D-08
 IDIUse=1 WtCom= 1.00D+00 WtEn= 0.00D+00
 Coeff-Com: -0.274D-03 0.591D-03 0.223D-02 0.311D-02 0.356D-02-0.640D-01
 Coeff-Com:  0.925D-01 0.962D+00
 Coeff:     -0.274D-03 0.591D-03 0.223D-02 0.311D-02 0.356D-02-0.640D-01
 Coeff:      0.925D-01 0.962D+00
 Gap=     0.246 Goal=   None    Shift=    0.000
 Gap=     0.303 Goal=   None    Shift=    0.000
 RMSDP=4.79D-07 MaxDP=8.83D-06 DE=-2.17D-08 OVMax= 1.71D-05

 Cycle   9  Pass 1  IDiag  1:
 E= -139.122340542762     Delta-E=       -0.000000000867 Rises=F Damp=F
 DIIS: error= 7.59D-07 at cycle   9 NSaved=   9.
 NSaved= 9 IEnMin= 9 EnMin= -139.122340542762     IErMin= 9 ErrMin= 7.59D-07
 ErrMax= 7.59D-07  0.00D+00 EMaxC= 1.00D-01 BMatC= 1.14D-10 BMatP= 2.64D-09
 IDIUse=1 WtCom= 1.00D+00 WtEn= 0.00D+00
 Coeff-Com: -0.606D-05-0.363D-04 0.148D-03 0.529D-03 0.141D-02-0.188D-02
 Coeff-Com: -0.478D-01 0.112D+00 0.935D+00
 Coeff:     -0.606D-05-0.363D-04 0.148D-03 0.529D-03 0.141D-02-0.188D-02
 Coeff:     -0.478D-01 0.112D+00 0.935D+00
 Gap=     0.246 Goal=   None    Shift=    0.000
 Gap=     0.303 Goal=   None    Shift=    0.000
 RMSDP=8.75D-08 MaxDP=1.08D-06 DE=-8.67D-10 OVMax= 3.60D-06

 Cycle  10  Pass 1  IDiag  1:
 E= -139.122340542802     Delta-E=       -0.000000000040 Rises=F Damp=F
 DIIS: error= 2.24D-07 at cycle  10 NSaved=  10.
 NSaved=10 IEnMin=10 EnMin= -139.122340542802     IErMin=10 ErrMin= 2.24D-07
 ErrMax= 2.24D-07  0.00D+00 EMaxC= 1.00D-01 BMatC= 5.42D-12 BMatP= 1.14D-10
 IDIUse=1 WtCom= 1.00D+00 WtEn= 0.00D+00
 Coeff-Com:  0.124D-04-0.269D-04-0.104D-03-0.134D-03-0.208D-03 0.313D-02
 Coeff-Com: -0.631D-02-0.408D-01 0.424D-01 0.100D+01
 Coeff:      0.124D-04-0.269D-04-0.104D-03-0.134D-03-0.208D-03 0.313D-02
 Coeff:     -0.631D-02-0.408D-01 0.424D-01 0.100D+01
 Gap=     0.246 Goal=   None    Shift=    0.000
 Gap=     0.303 Goal=   None    Shift=    0.000
 RMSDP=3.48D-08 MaxDP=8.37D-07 DE=-3.98D-11 OVMax= 1.53D-06

 Cycle  11  Pass 1  IDiag  1:
 E= -139.122340542804     Delta-E=       -0.000000000002 Rises=F Damp=F
 DIIS: error= 6.52D-08 at cycle  11 NSaved=  11.
 NSaved=11 IEnMin=11 EnMin= -139.122340542804     IErMin=11 ErrMin= 6.52D-08
 ErrMax= 6.52D-08  0.00D+00 EMaxC= 1.00D-01 BMatC= 4.96D-13 BMatP= 5.42D-12
 IDIUse=1 WtCom= 1.00D+00 WtEn= 0.00D+00
 Coeff-Com:  0.218D-05-0.288D-05-0.191D-04-0.473D-04-0.601D-04 0.492D-03
 Coeff-Com:  0.106D-02-0.948D-02-0.436D-01 0.124D+00 0.928D+00
 Coeff:      0.218D-05-0.288D-05-0.191D-04-0.473D-04-0.601D-04 0.492D-03
 Coeff:      0.106D-02-0.948D-02-0.436D-01 0.124D+00 0.928D+00
 Gap=     0.246 Goal=   None    Shift=    0.000
 Gap=     0.303 Goal=   None    Shift=    0.000
 RMSDP=5.37D-09 MaxDP=8.14D-08 DE=-2.27D-12 OVMax= 2.54D-07

 SCF Done:  E(UB3LYP) =  -139.122340543     A.U. after   11 cycles
            NFock= 11  Conv=0.54D-08     -V/T= 2.0032
 <Sx>= 0.0000 <Sy>= 0.0000 <Sz>= 0.5000 <S**2>= 0.7534 S= 0.5017
 <L.S>=  0.00000000000    
 KE= 1.386766897071D+02 PE=-3.936243391895D+02 EE= 8.377208275431D+01
 Annihilation of the first spin contaminant:
 S**2 before annihilation     0.7534,   after     0.7500
 Leave Link  502 at Wed Sep  5 16:47:56 2018, MaxMem=   805306368 cpu:               2.6 elap:               0.3
 (Enter /home/g16/l601.exe)
 Copying SCF densities to generalized density rwf, IOpCl= 1 IROHF=0.

 **********************************************************************

            Population analysis using the SCF density.

 **********************************************************************

 Orbital symmetries:
 Alpha Orbitals:
       Occupied  (A') (A') (A') (A') (A') (A") (A') (A") (A')
       Virtual   (A') (A') (A") (A') (A') (A") (A') (A') (A') (A")
                 (A') (A') (A") (A') (A') (A") (A") (A') (A') (A')
                 (A") (A') (A') (A') (A") (A") (A') (A") (A') (A')
                 (A') (A") (A') (A") (A') (A") (A') (A") (A') (A')
                 (A") (A') (A") (A') (A') (A") (A') (A') (A") (A')
                 (A") (A') (A') (A") (A') (A') (A')
 Beta  Orbitals:
       Occupied  (A') (A') (A') (A') (A') (A") (A') (A")
       Virtual   (A') (A') (A') (A") (A') (A') (A") (A') (A') (A')
                 (A") (A') (A') (A") (A') (A') (A") (A") (A') (A')
                 (A') (A") (A') (A') (A") (A') (A") (A') (A") (A')
                 (A') (A') (A") (A') (A") (A') (A") (A') (A") (A')
                 (A') (A") (A') (A") (A') (A') (A") (A') (A") (A')
                 (A') (A") (A') (A') (A") (A') (A') (A')
 The electronic state is 2-A'.
 Alpha  occ. eigenvalues --  -24.70528 -10.26376  -1.24195  -0.70055  -0.52618
 Alpha  occ. eigenvalues --   -0.52268  -0.48552  -0.38338  -0.23143
 Alpha virt. eigenvalues --    0.01408   0.02631   0.04682   0.06224   0.13122
 Alpha virt. eigenvalues --    0.17074   0.18071   0.23037   0.25593   0.26693
 Alpha virt. eigenvalues --    0.33601   0.42092   0.44809   0.50462   0.55791
 Alpha virt. eigenvalues --    0.56860   0.64734   0.72253   0.75313   0.88464
 Alpha virt. eigenvalues --    0.96436   1.11666   1.31240   1.31659   1.31787
 Alpha virt. eigenvalues --    1.55382   1.63575   1.72030   1.79152   1.91924
 Alpha virt. eigenvalues --    2.05287   2.08633   2.20097   2.21328   2.36588
 Alpha virt. eigenvalues --    2.39782   2.58422   2.72233   2.73361   2.83103
 Alpha virt. eigenvalues --    3.09337   3.16194   3.21690   3.26602   3.49692
 Alpha virt. eigenvalues --    4.04497   4.08791   6.26165   6.27444   6.55101
 Alpha virt. eigenvalues --    9.04904   9.06277   9.20311   9.31108   9.64097
 Alpha virt. eigenvalues --   23.84881  66.76442
  Beta  occ. eigenvalues --  -24.70082 -10.24903  -1.23208  -0.67013  -0.51539
  Beta  occ. eigenvalues --   -0.51493  -0.45215  -0.37757
  Beta virt. eigenvalues --   -0.07433   0.01768   0.02936   0.04729   0.07862
  Beta virt. eigenvalues --    0.14083   0.17515   0.19587   0.23247   0.25814
  Beta virt. eigenvalues --    0.26806   0.33699   0.43650   0.45885   0.55629
  Beta virt. eigenvalues --    0.56970   0.57845   0.66800   0.75366   0.77995
  Beta virt. eigenvalues --    0.90355   0.97305   1.12818   1.31733   1.31915
  Beta virt. eigenvalues --    1.32362   1.55570   1.64480   1.72337   1.79506
  Beta virt. eigenvalues --    1.92331   2.06179   2.09550   2.21550   2.21883
  Beta virt. eigenvalues --    2.37338   2.40014   2.59247   2.72571   2.78889
  Beta virt. eigenvalues --    2.86671   3.12494   3.17800   3.26245   3.33109
  Beta virt. eigenvalues --    3.55902   4.06458   4.10130   6.27773   6.27897
  Beta virt. eigenvalues --    6.55636   9.06467   9.07856   9.21842   9.31303
  Beta virt. eigenvalues --    9.64614  23.86566  66.76868
     Alpha Molecular Orbital Coefficients:
                           1         2         3         4         5
                           O         O         O         O         O
     Eigenvalues --   -24.70528 -10.26376  -1.24195  -0.70055  -0.52618
   1 1   C  1S          0.00004   0.56277  -0.03400  -0.10400   0.02093
   2        2S         -0.00015   0.46337  -0.05177  -0.16335   0.03236
   3        2PX         0.00000   0.00000  -0.00060  -0.01619   0.04036
   4        2PY         0.00010  -0.00127  -0.05219   0.01121  -0.16115
   5        2PZ         0.00000   0.00000   0.00000   0.00000   0.00000
   6        3S          0.00047   0.01921   0.13135   0.45475  -0.08392
   7        3PX        -0.00002  -0.00111   0.00052  -0.01824   0.05763
   8        3PY        -0.00146   0.00046  -0.06190   0.00605  -0.22375
   9        3PZ         0.00000   0.00000   0.00000   0.00000   0.00000
  10        4S          0.00357  -0.00938  -0.00684   0.28039  -0.12397
  11        4PX        -0.00007  -0.00021   0.00200  -0.00773   0.03594
  12        4PY        -0.00230   0.00325   0.01310   0.01258  -0.09854
  13        4PZ         0.00000   0.00000   0.00000   0.00000   0.00000
  14        5S         -0.00111  -0.00168   0.01552   0.00998  -0.01343
  15        5PX         0.00000   0.00034  -0.00048  -0.00222   0.00358
  16        5PY         0.00093  -0.00038  -0.01136   0.00317  -0.00045
  17        5PZ         0.00000   0.00000   0.00000   0.00000   0.00000
  18        6D 0       -0.00004   0.00018  -0.00814   0.00201  -0.01471
  19        6D+1        0.00000   0.00000   0.00000   0.00000   0.00000
  20        6D-1        0.00000   0.00000   0.00000   0.00000   0.00000
  21        6D+2       -0.00007  -0.00027  -0.01310  -0.00160  -0.01579
  22        6D-2       -0.00000  -0.00010   0.00009  -0.00048  -0.00147
  23        7D 0       -0.00047   0.00199  -0.00615  -0.00601  -0.01278
  24        7D+1        0.00000   0.00000   0.00000   0.00000   0.00000
  25        7D-1        0.00000   0.00000   0.00000   0.00000   0.00000
  26        7D+2       -0.00109  -0.00013   0.00042   0.00426  -0.01284
  27        7D-2        0.00002  -0.00036   0.00148   0.00164  -0.00017
  28 2   H  1S          0.00007   0.00020   0.00769   0.09087  -0.07995
  29        2S         -0.00026  -0.00464   0.01626   0.11458  -0.09764
  30        3S         -0.00003   0.00239  -0.00201   0.00190  -0.02061
  31        4PX        -0.00002  -0.00060   0.00082   0.00294  -0.00011
  32        4PY         0.00012   0.00112  -0.00307  -0.00735  -0.00156
  33        4PZ         0.00000   0.00194  -0.00258  -0.01590   0.01134
  34 3   H  1S          0.00007   0.00020   0.00769   0.09087  -0.07995
  35        2S         -0.00026  -0.00464   0.01626   0.11458  -0.09764
  36        3S         -0.00003   0.00239  -0.00201   0.00190  -0.02061
  37        4PX        -0.00002  -0.00060   0.00082   0.00294  -0.00011
  38        4PY         0.00012   0.00112  -0.00307  -0.00735  -0.00156
  39        4PZ        -0.00000  -0.00194   0.00258   0.01590  -0.01134
  40 4   F  1S          0.54764  -0.00004  -0.12144   0.03958   0.01712
  41        2S          0.47192  -0.00013  -0.19654   0.06485   0.02794
  42        2PX        -0.00001   0.00000  -0.00001  -0.00498   0.05484
  43        2PY         0.00092   0.00012   0.04185   0.12924   0.23034
  44        2PZ         0.00000   0.00000   0.00000   0.00000   0.00000
  45        3S          0.01255   0.00121   0.58467  -0.20348  -0.08689
  46        3PX         0.00000  -0.00002  -0.00006  -0.00721   0.07889
  47        3PY        -0.00012   0.00030   0.07070   0.18689   0.33646
  48        3PZ         0.00000   0.00000   0.00000   0.00000   0.00000
  49        4S         -0.00946  -0.00190   0.45808  -0.20237  -0.10483
  50        4PX         0.00002   0.00006  -0.00073  -0.00524   0.06499
  51        4PY        -0.00233  -0.00220   0.05027   0.12754   0.25434
  52        4PZ         0.00000   0.00000   0.00000   0.00000   0.00000
  53        5S          0.00217   0.00595  -0.01584  -0.04336  -0.04256
  54        5PX         0.00001  -0.00010  -0.00023   0.00095   0.00233
  55        5PY        -0.00014   0.00348  -0.00043  -0.00254   0.02248
  56        5PZ         0.00000   0.00000   0.00000   0.00000   0.00000
  57        6D 0       -0.00015  -0.00012  -0.00166  -0.00153  -0.00220
  58        6D+1        0.00000   0.00000   0.00000   0.00000   0.00000
  59        6D-1        0.00000   0.00000   0.00000   0.00000   0.00000
  60        6D+2       -0.00012  -0.00031  -0.00166  -0.00297  -0.00394
  61        6D-2        0.00002  -0.00001   0.00014  -0.00020   0.00071
  62        7D 0        0.00033   0.00050  -0.00777  -0.00463  -0.00860
  63        7D+1        0.00000   0.00000   0.00000   0.00000   0.00000
  64        7D-1        0.00000   0.00000   0.00000   0.00000   0.00000
  65        7D+2        0.00057   0.00127  -0.01265  -0.01032  -0.01543
  66        7D-2        0.00001   0.00003  -0.00007  -0.00105   0.00455
                           6         7         8         9        10
                           O         O         O         O         V
     Eigenvalues --    -0.52268  -0.48552  -0.38338  -0.23143   0.01408
   1 1   C  1S          0.00000  -0.01179   0.00000  -0.01861   0.03850
   2        2S          0.00000  -0.01878   0.00000  -0.03070   0.06409
   3        2PX         0.00000   0.09783   0.00000   0.26728   0.02175
   4        2PY         0.00000   0.04052   0.00000   0.02468  -0.05380
   5        2PZ         0.17046   0.00000  -0.14063   0.00000   0.00000
   6        3S          0.00000   0.05453   0.00000   0.09634  -0.22245
   7        3PX         0.00000   0.15163   0.00000   0.40766   0.04632
   8        3PY         0.00000   0.05739   0.00000   0.03906  -0.07935
   9        3PZ         0.23813   0.00000  -0.18577   0.00000   0.00000
  10        4S          0.00000   0.06152   0.00000   0.16792  -0.28081
  11        4PX         0.00000   0.09364   0.00000   0.43741   0.04589
  12        4PY         0.00000   0.02953   0.00000   0.04608  -0.41829
  13        4PZ         0.12958   0.00000  -0.11508   0.00000   0.00000
  14        5S          0.00000   0.00081   0.00000   0.02300   1.78634
  15        5PX         0.00000   0.01023   0.00000   0.08251  -0.19250
  16        5PY         0.00000  -0.00041   0.00000   0.00656   0.19294
  17        5PZ         0.01566   0.00000   0.00126   0.00000   0.00000
  18        6D 0        0.00000   0.00251   0.00000  -0.00234   0.00094
  19        6D+1       -0.00415   0.00000   0.00503   0.00000   0.00000
  20        6D-1       -0.00215   0.00000  -0.01878   0.00000   0.00000
  21        6D+2        0.00000   0.00404   0.00000   0.00351   0.00138
  22        6D-2        0.00000  -0.01322   0.00000   0.00597  -0.00046
  23        7D 0        0.00000   0.00300   0.00000   0.00293  -0.03836
  24        7D+1       -0.00383   0.00000   0.00299   0.00000   0.00000
  25        7D-1       -0.01588   0.00000  -0.02649   0.00000   0.00000
  26        7D+2        0.00000   0.00213   0.00000   0.00055  -0.02626
  27        7D-2        0.00000  -0.01914   0.00000   0.02169   0.00638
  28 2   H  1S          0.10143   0.01243  -0.11754  -0.02951  -0.00809
  29        2S          0.13927   0.01430  -0.17691  -0.05251   0.11318
  30        3S          0.02266   0.00788  -0.09398  -0.03915  -0.15193
  31        4PX         0.00374   0.00574  -0.00310   0.01960  -0.00155
  32        4PY        -0.00750   0.00117   0.00897   0.00453   0.00076
  33        4PZ        -0.00954  -0.00136   0.01093   0.00458   0.01121
  34 3   H  1S         -0.10143   0.01243   0.11754  -0.02951  -0.00809
  35        2S         -0.13927   0.01430   0.17691  -0.05251   0.11318
  36        3S         -0.02266   0.00788   0.09398  -0.03915  -0.15193
  37        4PX        -0.00374   0.00574   0.00310   0.01960  -0.00155
  38        4PY         0.00750   0.00117  -0.00897   0.00453   0.00076
  39        4PZ        -0.00954   0.00136   0.01093  -0.00458  -0.01121
  40 4   F  1S          0.00000  -0.00231   0.00000   0.00221   0.00664
  41        2S          0.00000  -0.00378   0.00000   0.00370   0.01136
  42        2PX         0.00000   0.28593   0.00000  -0.15046  -0.00219
  43        2PY         0.00000  -0.04751   0.00000  -0.01782   0.02417
  44        2PZ         0.20248   0.00000   0.24889   0.00000   0.00000
  45        3S          0.00000   0.01191   0.00000  -0.01285  -0.04431
  46        3PX         0.00000   0.41124   0.00000  -0.21477  -0.00120
  47        3PY         0.00000  -0.06952   0.00000  -0.02640   0.03245
  48        3PZ         0.29158   0.00000   0.35702   0.00000   0.00000
  49        4S          0.00000   0.01457   0.00000  -0.01616  -0.05825
  50        4PX         0.00000   0.34407   0.00000  -0.20666  -0.01067
  51        4PY         0.00000  -0.05462   0.00000  -0.02340   0.00006
  52        4PZ         0.23964   0.00000   0.31538   0.00000   0.00000
  53        5S          0.00000   0.00425   0.00000   0.00709  -0.74972
  54        5PX         0.00000   0.03357   0.00000  -0.11260   0.03011
  55        5PY         0.00000  -0.00837   0.00000  -0.00686  -0.24266
  56        5PZ         0.01443   0.00000   0.07060   0.00000   0.00000
  57        6D 0        0.00000   0.00040   0.00000   0.00008  -0.00018
  58        6D+1        0.00002   0.00000   0.00006   0.00000   0.00000
  59        6D-1        0.00295   0.00000   0.00073   0.00000   0.00000
  60        6D+2        0.00000   0.00079   0.00000   0.00005  -0.00002
  61        6D-2        0.00000   0.00290   0.00000   0.00164   0.00017
  62        7D 0        0.00000   0.00202   0.00000  -0.00030   0.00467
  63        7D+1       -0.00053   0.00000   0.00024   0.00000   0.00000
  64        7D-1        0.01902   0.00000   0.00802   0.00000   0.00000
  65        7D+2        0.00000   0.00284   0.00000   0.00064   0.00620
  66        7D-2        0.00000   0.02119   0.00000   0.00751   0.00174
                          11        12        13        14        15
                           V         V         V         V         V
     Eigenvalues --     0.02631   0.04682   0.06224   0.13122   0.17074
   1 1   C  1S          0.02333   0.00000   0.00822   0.04935   0.00000
   2        2S          0.03793   0.00000   0.01351   0.07837   0.00000
   3        2PX         0.00454   0.00000  -0.10979   0.05481   0.00000
   4        2PY         0.06521   0.00000  -0.01098  -0.03603   0.00000
   5        2PZ         0.00000  -0.09432   0.00000   0.00000  -0.16629
   6        3S         -0.09660   0.00000  -0.04296  -0.16501   0.00000
   7        3PX         0.01298   0.00000  -0.14334   0.06992   0.00000
   8        3PY         0.10104   0.00000  -0.00537  -0.02005   0.00000
   9        3PZ         0.00000  -0.17355   0.00000   0.00000  -0.17597
  10        4S         -0.59625   0.00000  -0.10852  -1.91155   0.00000
  11        4PX         0.01129   0.00000  -0.32500   0.38212   0.00000
  12        4PY         0.38223   0.00000  -0.10018  -0.60101   0.00000
  13        4PZ         0.00000  -0.22244   0.00000   0.00000  -1.32707
  14        5S         -0.54123   0.00000   0.12723  -1.95286   0.00000
  15        5PX        -0.03588   0.00000   1.23058   0.25502   0.00000
  16        5PY         1.10952   0.00000   0.03044  -0.61196   0.00000
  17        5PZ         0.00000   1.37119   0.00000   0.00000  -1.24065
  18        6D 0       -0.00663   0.00000   0.00116   0.01833   0.00000
  19        6D+1        0.00000   0.00184   0.00000   0.00000  -0.00910
  20        6D-1        0.00000   0.00063   0.00000   0.00000   0.01351
  21        6D+2       -0.01436   0.00000  -0.00025  -0.00766   0.00000
  22        6D-2        0.00015   0.00000   0.00226  -0.00424   0.00000
  23        7D 0       -0.02710   0.00000   0.00300   0.01867   0.00000
  24        7D+1        0.00000   0.01441   0.00000   0.00000  -0.02771
  25        7D-1        0.00000  -0.01780   0.00000   0.00000   0.00913
  26        7D+2       -0.02453   0.00000  -0.00508  -0.05388   0.00000
  27        7D-2       -0.00321   0.00000   0.01116   0.00646   0.00000
  28 2   H  1S          0.00555  -0.02121   0.00805   0.09014   0.04654
  29        2S          0.05448   0.08184   0.00151   0.21312   0.08120
  30        3S         -0.04226  -0.27142   0.11056   2.15079   2.52091
  31        4PX         0.00307  -0.00167   0.00257   0.00458  -0.01329
  32        4PY         0.01445   0.00336  -0.00013  -0.00518   0.02002
  33        4PZ        -0.00630   0.00717  -0.00061   0.01345   0.01288
  34 3   H  1S          0.00555   0.02121   0.00805   0.09014  -0.04654
  35        2S          0.05448  -0.08184   0.00151   0.21312  -0.08120
  36        3S         -0.04226   0.27142   0.11056   2.15079  -2.52091
  37        4PX         0.00307   0.00167   0.00257   0.00458   0.01329
  38        4PY         0.01445  -0.00336  -0.00013  -0.00518  -0.02002
  39        4PZ         0.00630   0.00717   0.00061  -0.01345   0.01288
  40 4   F  1S         -0.02871   0.00000   0.00030  -0.00928   0.00000
  41        2S         -0.04836   0.00000   0.00054  -0.01547   0.00000
  42        2PX        -0.00366   0.00000  -0.00594  -0.01863   0.00000
  43        2PY         0.05772   0.00000   0.00578   0.02640   0.00000
  44        2PZ         0.00000  -0.00835   0.00000   0.00000   0.08036
  45        3S          0.17281   0.00000  -0.00260   0.05159   0.00000
  46        3PX        -0.00384   0.00000  -0.01922  -0.02493   0.00000
  47        3PY         0.08183   0.00000   0.00771   0.04187   0.00000
  48        3PZ         0.00000  -0.02359   0.00000   0.00000   0.09891
  49        4S          0.23193   0.00000  -0.00265   0.08198   0.00000
  50        4PX        -0.01359   0.00000   0.04116  -0.03905   0.00000
  51        4PY         0.14821   0.00000   0.01034   0.02493   0.00000
  52        4PZ         0.00000   0.03579   0.00000   0.00000   0.22074
  53        5S          0.94454   0.00000  -0.11619  -0.18906   0.00000
  54        5PX         0.02318   0.00000  -0.14150  -0.05219   0.00000
  55        5PY         0.20957   0.00000  -0.06894   0.03223   0.00000
  56        5PZ         0.00000  -0.19299   0.00000   0.00000  -0.07419
  57        6D 0        0.00039   0.00000   0.00011   0.00104   0.00000
  58        6D+1        0.00000   0.00012   0.00000   0.00000  -0.00036
  59        6D-1        0.00000  -0.00094   0.00000   0.00000  -0.00173
  60        6D+2        0.00111   0.00000   0.00008   0.00088   0.00000
  61        6D-2        0.00015   0.00000  -0.00131   0.00065   0.00000
  62        7D 0       -0.00191   0.00000   0.00028   0.00801   0.00000
  63        7D+1        0.00000  -0.00014   0.00000   0.00000  -0.00433
  64        7D-1        0.00000  -0.00788   0.00000   0.00000  -0.00668
  65        7D+2       -0.00352   0.00000  -0.00002  -0.00161   0.00000
  66        7D-2       -0.00022   0.00000  -0.00729   0.00350   0.00000
                          16        17        18        19        20
                           V         V         V         V         V
     Eigenvalues --     0.18071   0.23037   0.25593   0.26693   0.33601
   1 1   C  1S          0.03849   0.01319  -0.00358   0.00000   0.03166
   2        2S          0.06412   0.01914  -0.00635   0.00000   0.05097
   3        2PX        -0.00100  -0.01043  -0.00496   0.00000  -0.00202
   4        2PY         0.19876   0.08382   0.00238   0.00000   0.02545
   5        2PZ         0.00000   0.00000   0.00000  -0.08092   0.00000
   6        3S         -0.20880  -0.01469   0.01949   0.00000  -0.10379
   7        3PX        -0.00424  -0.00497   0.05182   0.00000  -0.00854
   8        3PY         0.33387   0.03152  -0.00183   0.00000   0.05589
   9        3PZ         0.00000   0.00000   0.00000  -0.09877   0.00000
  10        4S         -0.43876  -1.39301   0.07946   0.00000  -3.32233
  11        4PX        -0.06055  -0.04214  -0.44260   0.00000  -0.13202
  12        4PY         1.17394   0.68403   0.08025   0.00000   2.41280
  13        4PZ         0.00000   0.00000   0.00000  -1.12278   0.00000
  14        5S          0.59644   0.93985   0.21684   0.00000  -2.14159
  15        5PX        -0.02211  -0.02911  -0.61555   0.00000   0.04103
  16        5PY        -0.88925  -0.52949  -0.05900   0.00000   0.55967
  17        5PZ         0.00000   0.00000   0.00000  -1.26180   0.00000
  18        6D 0       -0.01472  -0.00488  -0.00201   0.00000  -0.01397
  19        6D+1        0.00000   0.00000   0.00000  -0.00464   0.00000
  20        6D-1        0.00000   0.00000   0.00000   0.00296   0.00000
  21        6D+2       -0.02549   0.00048   0.00121   0.00000  -0.00819
  22        6D-2        0.00051   0.00139  -0.00471   0.00000   0.00194
  23        7D 0        0.02298  -0.06038   0.00199   0.00000   0.13331
  24        7D+1        0.00000   0.00000   0.00000  -0.01656   0.00000
  25        7D-1        0.00000   0.00000   0.00000  -0.05649   0.00000
  26        7D+2       -0.03924   0.01003   0.01484   0.00000   0.22184
  27        7D-2       -0.02291   0.01162  -0.01269   0.00000  -0.02102
  28 2   H  1S          0.00941  -0.01247  -0.00378   0.00704  -0.03288
  29        2S         -0.10205   0.06767  -0.06333   0.20942  -0.36797
  30        3S         -0.16288  -0.70232  -0.16215   1.16055   0.21586
  31        4PX         0.00007   0.00223  -0.00145  -0.00795  -0.00844
  32        4PY         0.03166  -0.01067   0.00440  -0.00532   0.01525
  33        4PZ        -0.00494  -0.01104  -0.00198  -0.00001   0.01079
  34 3   H  1S          0.00941  -0.01247  -0.00378  -0.00704  -0.03288
  35        2S         -0.10205   0.06767  -0.06333  -0.20942  -0.36797
  36        3S         -0.16288  -0.70232  -0.16215  -1.16055   0.21586
  37        4PX         0.00007   0.00223  -0.00145   0.00795  -0.00844
  38        4PY         0.03166  -0.01067   0.00440   0.00532   0.01525
  39        4PZ         0.00494   0.01104   0.00198  -0.00001  -0.01079
  40 4   F  1S         -0.02888  -0.02018  -0.00112   0.00000   0.02501
  41        2S         -0.04695  -0.03354  -0.00175   0.00000   0.04070
  42        2PX        -0.00297   0.01423  -0.12318   0.00000   0.00222
  43        2PY         0.18289  -0.04470  -0.01315   0.00000   0.05431
  44        2PZ         0.00000   0.00000   0.00000  -0.10332   0.00000
  45        3S          0.12331   0.11140   0.00307   0.00000  -0.11710
  46        3PX        -0.00377   0.01461  -0.12323   0.00000   0.00371
  47        3PY         0.25671  -0.01926  -0.01221   0.00000   0.04918
  48        3PZ         0.00000   0.00000   0.00000  -0.09622   0.00000
  49        4S          0.73683   0.30125   0.05391   0.00000  -0.54127
  50        4PX        -0.01338   0.05537  -0.48459   0.00000  -0.00049
  51        4PY         0.49056  -0.31531  -0.04969   0.00000   0.51754
  52        4PZ         0.00000   0.00000   0.00000  -0.45556   0.00000
  53        5S         -0.31653   0.48847  -0.08447   0.00000   6.25204
  54        5PX         0.03545  -0.14580   1.70673   0.00000   0.04220
  55        5PY        -0.04948   2.14909   0.18700   0.00000   2.06000
  56        5PZ         0.00000   0.00000   0.00000   1.86962   0.00000
  57        6D 0        0.00163   0.00089  -0.00001   0.00000   0.00406
  58        6D+1        0.00000   0.00000   0.00000  -0.00008   0.00000
  59        6D-1        0.00000   0.00000   0.00000  -0.00275   0.00000
  60        6D+2        0.00256   0.00262   0.00002   0.00000   0.00627
  61        6D-2        0.00018   0.00002  -0.00194   0.00000  -0.00013
  62        7D 0       -0.00162   0.01448  -0.00024   0.00000  -0.00556
  63        7D+1        0.00000   0.00000   0.00000  -0.00410   0.00000
  64        7D-1        0.00000   0.00000   0.00000  -0.02023   0.00000
  65        7D+2        0.00199   0.02871   0.00243   0.00000  -0.00180
  66        7D-2       -0.00150   0.00089  -0.01196   0.00000  -0.00211
                          21        22        23        24        25
                           V         V         V         V         V
     Eigenvalues --     0.42092   0.44809   0.50462   0.55791   0.56860
   1 1   C  1S          0.02158   0.00000   0.00254   0.03138   0.00000
   2        2S          0.03816   0.00000   0.00474   0.05686   0.00000
   3        2PX        -0.02839   0.00000  -0.23902   0.06229   0.00000
   4        2PY         0.12401   0.00000  -0.07287  -0.26600   0.00000
   5        2PZ         0.00000  -0.00755   0.00000   0.00000   0.23012
   6        3S         -0.07133   0.00000  -0.01365  -0.25435   0.00000
   7        3PX        -0.06753   0.00000  -0.85350   0.17422   0.00000
   8        3PY         0.19038   0.00000  -0.18790  -0.67440   0.00000
   9        3PZ         0.00000   0.06894   0.00000   0.00000   0.68061
  10        4S         -1.12573   0.00000  -0.31196  -0.81640   0.00000
  11        4PX         0.41770   0.00000   1.59634  -0.49482   0.00000
  12        4PY        -0.42478   0.00000   0.60510   3.22490   0.00000
  13        4PZ         0.00000   1.94643   0.00000   0.00000  -1.98345
  14        5S          1.02347   0.00000  -0.36236   0.92400   0.00000
  15        5PX        -0.38490   0.00000  -0.64708  -0.12895   0.00000
  16        5PY         0.88746   0.00000  -0.24806  -0.14451   0.00000
  17        5PZ         0.00000  -0.79894   0.00000   0.00000  -0.55439
  18        6D 0        0.02191   0.00000  -0.00276   0.00748   0.00000
  19        6D+1        0.00000   0.01573   0.00000   0.00000   0.00154
  20        6D-1        0.00000  -0.02193   0.00000   0.00000  -0.01562
  21        6D+2       -0.00656   0.00000  -0.00074  -0.01753   0.00000
  22        6D-2       -0.00441   0.00000   0.00799  -0.00481   0.00000
  23        7D 0       -0.02974   0.00000   0.08364   0.53648   0.00000
  24        7D+1        0.00000   0.16070   0.00000   0.00000  -0.28630
  25        7D-1        0.00000   0.14443   0.00000   0.00000  -0.56795
  26        7D+2       -0.21534   0.00000   0.05078   0.24045   0.00000
  27        7D-2        0.05049   0.00000   0.13250  -0.13904   0.00000
  28 2   H  1S          0.08057  -0.06970  -0.01700   0.08295  -0.08743
  29        2S          1.13694  -1.41628  -0.12542   0.16644  -0.13998
  30        3S         -1.60032   0.88511   0.29652  -1.96205   2.03057
  31        4PX         0.02127   0.01285  -0.00540  -0.01956  -0.00693
  32        4PY        -0.03986  -0.00426   0.00185   0.04494  -0.05101
  33        4PZ        -0.02395   0.07944   0.00419   0.06904  -0.05855
  34 3   H  1S          0.08057   0.06970  -0.01700   0.08295   0.08743
  35        2S          1.13694   1.41628  -0.12542   0.16644   0.13998
  36        3S         -1.60032  -0.88511   0.29652  -1.96205  -2.03057
  37        4PX         0.02127  -0.01285  -0.00540  -0.01956   0.00693
  38        4PY        -0.03986   0.00426   0.00185   0.04494   0.05101
  39        4PZ         0.02395   0.07944  -0.00419  -0.06904  -0.05855
  40 4   F  1S         -0.00033   0.00000   0.00179   0.00475   0.00000
  41        2S         -0.00231   0.00000   0.00374   0.01004   0.00000
  42        2PX        -0.01448   0.00000   0.00564  -0.01318   0.00000
  43        2PY         0.08383   0.00000  -0.02696  -0.06932   0.00000
  44        2PZ         0.00000  -0.05711   0.00000   0.00000  -0.05273
  45        3S          0.05434   0.00000  -0.03178  -0.09346   0.00000
  46        3PX        -0.01510   0.00000   0.02300  -0.02362   0.00000
  47        3PY         0.10563   0.00000  -0.04356  -0.11182   0.00000
  48        3PZ         0.00000  -0.07318   0.00000   0.00000  -0.09273
  49        4S         -0.65973   0.00000   0.24603   0.90512   0.00000
  50        4PX        -0.05548   0.00000  -0.09064  -0.01803   0.00000
  51        4PY         0.07805   0.00000   0.05408   0.37477   0.00000
  52        4PZ         0.00000  -0.15187   0.00000   0.00000  -0.08707
  53        5S          1.79592   0.00000   0.21763   2.48039   0.00000
  54        5PX         0.04070   0.00000  -0.07425   0.07369   0.00000
  55        5PY         0.57466   0.00000   0.13727   1.40067   0.00000
  56        5PZ         0.00000  -0.31325   0.00000   0.00000   0.32139
  57        6D 0        0.00142   0.00000  -0.00044  -0.00004   0.00000
  58        6D+1        0.00000   0.00010   0.00000   0.00000  -0.00077
  59        6D-1        0.00000   0.00329   0.00000   0.00000   0.00565
  60        6D+2        0.00347   0.00000  -0.00128  -0.00253   0.00000
  61        6D-2        0.00032   0.00000  -0.00096   0.00136   0.00000
  62        7D 0        0.02293   0.00000  -0.00523  -0.02470   0.00000
  63        7D+1        0.00000   0.01252   0.00000   0.00000  -0.01872
  64        7D-1        0.00000   0.02268   0.00000   0.00000   0.01670
  65        7D+2        0.01907   0.00000  -0.01136  -0.04069   0.00000
  66        7D-2        0.00133   0.00000  -0.01943   0.00501   0.00000
                          26        27        28        29        30
                           V         V         V         V         V
     Eigenvalues --     0.64734   0.72253   0.75313   0.88464   0.96436
   1 1   C  1S          0.00000   0.07888   0.07123   0.02641   0.00000
   2        2S          0.00000   0.15617   0.14203   0.05496   0.00000
   3        2PX         0.00000  -0.01453   0.04067  -0.02155   0.00000
   4        2PY         0.00000   0.05346   0.05356   0.06293   0.00000
   5        2PZ        -0.16374   0.00000   0.00000   0.00000  -0.05991
   6        3S          0.00000  -1.25202  -1.25647  -0.92879   0.00000
   7        3PX         0.00000  -0.10587   0.10461  -0.17607   0.00000
   8        3PY         0.00000   0.05283   0.11933   0.45846   0.00000
   9        3PZ        -0.45368   0.00000   0.00000   0.00000  -0.72817
  10        4S          0.00000   3.43774   4.10924   5.65132   0.00000
  11        4PX         0.00000   0.48316  -0.62971  -0.39881   0.00000
  12        4PY         0.00000  -1.40643  -0.79649  -0.49186   0.00000
  13        4PZ         2.85406   0.00000   0.00000   0.00000  -2.54837
  14        5S          0.00000   0.26146   0.40704   0.06283   0.00000
  15        5PX         0.00000  -0.07165  -0.09242   0.06136   0.00000
  16        5PY         0.00000   0.14739   0.07313  -0.20275   0.00000
  17        5PZ         0.58975   0.00000   0.00000   0.00000   0.21492
  18        6D 0        0.00000   0.00751   0.00775   0.01063   0.00000
  19        6D+1       -0.00596   0.00000   0.00000   0.00000   0.00993
  20        6D-1       -0.00199   0.00000   0.00000   0.00000  -0.00874
  21        6D+2        0.00000  -0.00374  -0.00577   0.00311   0.00000
  22        6D-2        0.00000  -0.01019   0.00843  -0.00455   0.00000
  23        7D 0        0.00000  -0.43934   0.22889   1.35240   0.00000
  24        7D+1       -0.85894   0.00000   0.00000   0.00000   0.91534
  25        7D-1       -0.11177   0.00000   0.00000   0.00000  -1.78611
  26        7D+2        0.00000   0.35644   0.10925  -0.49501   0.00000
  27        7D-2        0.00000  -0.57729   0.85389  -0.57507   0.00000
  28 2   H  1S          0.03215   0.04426   0.02776  -0.00642  -0.01152
  29        2S         -0.54102   0.37400  -0.22613  -2.07119   2.66129
  30        3S         -1.80547  -0.39618  -0.59727   0.14532  -0.09224
  31        4PX        -0.04810  -0.03957  -0.00717  -0.03440   0.05538
  32        4PY        -0.01043   0.02161   0.01656   0.05770  -0.12209
  33        4PZ         0.08269   0.03799   0.08412   0.12916  -0.12424
  34 3   H  1S         -0.03215   0.04426   0.02776  -0.00642   0.01152
  35        2S          0.54102   0.37400  -0.22613  -2.07119  -2.66129
  36        3S          1.80547  -0.39618  -0.59727   0.14532   0.09224
  37        4PX         0.04810  -0.03957  -0.00717  -0.03440  -0.05538
  38        4PY         0.01043   0.02161   0.01656   0.05770   0.12209
  39        4PZ         0.08269  -0.03799  -0.08412  -0.12916  -0.12424
  40 4   F  1S          0.00000  -0.01119  -0.01083  -0.00246   0.00000
  41        2S          0.00000  -0.02089  -0.01983  -0.00426   0.00000
  42        2PX         0.00000  -0.04208   0.05353  -0.01849   0.00000
  43        2PY         0.00000   0.06024   0.04540  -0.00951   0.00000
  44        2PZ        -0.01318   0.00000   0.00000   0.00000  -0.01513
  45        3S          0.00000   0.12505   0.10768   0.01430   0.00000
  46        3PX         0.00000  -0.06173   0.07491  -0.02670   0.00000
  47        3PY         0.00000   0.12571   0.09935  -0.00719   0.00000
  48        3PZ        -0.00257   0.00000   0.00000   0.00000  -0.00598
  49        4S          0.00000  -0.23800  -0.04168   0.07908   0.00000
  50        4PX         0.00000  -0.19156   0.28016  -0.13559   0.00000
  51        4PY         0.00000  -0.23186  -0.14187  -0.06967   0.00000
  52        4PZ        -0.17025   0.00000   0.00000   0.00000  -0.40654
  53        5S          0.00000  -2.29327  -2.19529  -2.80935   0.00000
  54        5PX         0.00000  -0.23540   0.35197  -0.00439   0.00000
  55        5PY         0.00000  -1.24413  -1.13769  -1.31217   0.00000
  56        5PZ        -0.81592   0.00000   0.00000   0.00000   0.36911
  57        6D 0        0.00000  -0.00124   0.00111   0.00536   0.00000
  58        6D+1       -0.00259   0.00000   0.00000   0.00000   0.00245
  59        6D-1        0.00561   0.00000   0.00000   0.00000   0.01311
  60        6D+2        0.00000   0.00091   0.00079   0.00140   0.00000
  61        6D-2        0.00000   0.00777  -0.01149   0.00530   0.00000
  62        7D 0        0.00000  -0.00082   0.01770   0.07209   0.00000
  63        7D+1       -0.02622   0.00000   0.00000   0.00000   0.05219
  64        7D-1        0.00605   0.00000   0.00000   0.00000  -0.01054
  65        7D+2        0.00000   0.05713   0.03635  -0.01516   0.00000
  66        7D-2        0.00000   0.01323  -0.01841   0.00596   0.00000
                          31        32        33        34        35
                           V         V         V         V         V
     Eigenvalues --     1.11666   1.31240   1.31659   1.31787   1.55382
   1 1   C  1S          0.02597  -0.00602   0.01570   0.00000   0.00000
   2        2S          0.06007  -0.01756   0.05017   0.00000   0.00000
   3        2PX         0.00056  -0.01300  -0.00115   0.00000   0.00000
   4        2PY        -0.08546   0.02883  -0.07633   0.00000   0.00000
   5        2PZ         0.00000   0.00000   0.00000  -0.05247   0.01657
   6        3S         -1.06575   0.19825  -0.61520   0.00000   0.00000
   7        3PX         0.04008  -0.09104  -0.02556   0.00000   0.00000
   8        3PY        -0.74953  -0.12883   0.42740   0.00000   0.00000
   9        3PZ         0.00000   0.00000   0.00000  -0.19257  -0.17208
  10        4S          6.93599  -0.14276   0.49625   0.00000   0.00000
  11        4PX         0.04469  -0.11343   0.11738   0.00000   0.00000
  12        4PY        -4.45756   0.23539  -0.85089   0.00000   0.00000
  13        4PZ         0.00000   0.00000   0.00000  -0.10045  -0.15907
  14        5S          0.89782  -0.05345  -0.00219   0.00000   0.00000
  15        5PX        -0.03737   0.30003   0.08799   0.00000   0.00000
  16        5PY         0.03364  -0.06963   0.20366   0.00000   0.00000
  17        5PZ         0.00000   0.00000   0.00000   0.47942   0.04053
  18        6D 0       -0.01328  -0.00772   0.02200   0.00000   0.00000
  19        6D+1        0.00000   0.00000   0.00000  -0.00058  -0.01293
  20        6D-1        0.00000   0.00000   0.00000  -0.01436  -0.03527
  21        6D+2       -0.01581  -0.01711   0.06176   0.00000   0.00000
  22        6D-2        0.00189  -0.01201  -0.00118   0.00000   0.00000
  23        7D 0       -1.27643   0.11712  -0.41173   0.00000   0.00000
  24        7D+1        0.00000   0.00000   0.00000   0.06030   0.49500
  25        7D-1        0.00000   0.00000   0.00000   0.04710  -0.59458
  26        7D+2       -1.91045   0.04532  -0.29246   0.00000   0.00000
  27        7D-2        0.05219   0.25117   0.15638   0.00000   0.00000
  28 2   H  1S         -0.03406   0.01049  -0.04709  -0.00749  -0.09877
  29        2S          0.47428  -0.15941   0.45912   0.30595   0.69665
  30        3S         -0.29675   0.04491   0.05251  -0.34688  -0.27633
  31        4PX         0.01380  -0.04132  -0.01516  -0.01202  -0.48202
  32        4PY        -0.00395  -0.04362   0.05431   0.06551   0.43119
  33        4PZ        -0.02037  -0.00122   0.00724  -0.04852  -0.39882
  34 3   H  1S         -0.03406   0.01049  -0.04709   0.00749   0.09877
  35        2S          0.47428  -0.15941   0.45912  -0.30595  -0.69665
  36        3S         -0.29675   0.04491   0.05251   0.34688   0.27633
  37        4PX         0.01380  -0.04132  -0.01516   0.01202   0.48202
  38        4PY        -0.00395  -0.04362   0.05431  -0.06551  -0.43119
  39        4PZ         0.02037   0.00122  -0.00724  -0.04852  -0.39882
  40 4   F  1S          0.03156   0.00064  -0.00470   0.00000   0.00000
  41        2S          0.05173   0.00049  -0.00677   0.00000   0.00000
  42        2PX         0.00105  -0.24758  -0.07247   0.00000   0.00000
  43        2PY         0.00667   0.06394  -0.21346   0.00000   0.00000
  44        2PZ         0.00000   0.00000   0.00000  -0.26226   0.00453
  45        3S         -0.09478   0.01108   0.00449   0.00000   0.00000
  46        3PX         0.00234  -0.76691  -0.22922   0.00000   0.00000
  47        3PY         0.12048   0.22105  -0.74616   0.00000   0.00000
  48        3PZ         0.00000   0.00000   0.00000  -0.80065   0.08582
  49        4S         -2.98171   0.05553  -0.35950   0.00000   0.00000
  50        4PX         0.00545   1.79613   0.56141   0.00000   0.00000
  51        4PY        -2.65436  -0.50209   1.62305   0.00000   0.00000
  52        4PZ         0.00000   0.00000   0.00000   1.79862  -0.45351
  53        5S         -5.18216   0.11313  -0.38858   0.00000   0.00000
  54        5PX         0.00237  -0.97161  -0.32628   0.00000   0.00000
  55        5PY        -1.43446   0.31716  -1.10008   0.00000   0.00000
  56        5PZ         0.00000   0.00000   0.00000  -1.03875   0.23973
  57        6D 0       -0.01233  -0.00220   0.00675   0.00000   0.00000
  58        6D+1        0.00000   0.00000   0.00000   0.00004  -0.00004
  59        6D-1        0.00000   0.00000   0.00000  -0.00534   0.00681
  60        6D+2       -0.02091  -0.00382   0.01237   0.00000   0.00000
  61        6D-2       -0.00028  -0.00705  -0.00272   0.00000   0.00000
  62        7D 0        0.04276  -0.00003   0.02161   0.00000   0.00000
  63        7D+1        0.00000   0.00000   0.00000   0.01215   0.19787
  64        7D-1        0.00000   0.00000   0.00000  -0.03720   0.20413
  65        7D+2        0.09500  -0.03213   0.09845   0.00000   0.00000
  66        7D-2       -0.00274  -0.05463  -0.02537   0.00000   0.00000
                          36        37        38        39        40
                           V         V         V         V         V
     Eigenvalues --     1.63575   1.72030   1.79152   1.91924   2.05287
   1 1   C  1S          0.00397   0.00000  -0.00007   0.00548   0.03628
   2        2S          0.00693   0.00000  -0.00457   0.01827   0.07711
   3        2PX        -0.11370   0.00000   0.05434  -0.06105   0.17460
   4        2PY        -0.02119   0.00000   0.03228   0.07667  -0.16861
   5        2PZ         0.00000  -0.03264   0.00000   0.00000   0.00000
   6        3S         -0.00358   0.00000   0.14071  -0.12751  -0.48640
   7        3PX        -0.06240   0.00000  -0.05674   0.08408   0.01762
   8        3PY         0.07452   0.00000   0.37270  -0.17573  -0.16033
   9        3PZ         0.00000   0.10121   0.00000   0.00000   0.00000
  10        4S         -0.17670   0.00000  -0.56049  -0.31466   0.33279
  11        4PX        -0.45623   0.00000   0.08437  -0.04263   0.20630
  12        4PY         0.13489   0.00000   0.82900   0.20668  -0.71882
  13        4PZ         0.00000   0.11922   0.00000   0.00000   0.00000
  14        5S          0.08462   0.00000   0.57409   0.23137  -0.67597
  15        5PX         0.13367   0.00000  -0.01449   0.00704   0.07401
  16        5PY        -0.06910   0.00000  -0.50227  -0.21315  -0.11175
  17        5PZ         0.00000   0.06893   0.00000   0.00000   0.00000
  18        6D 0        0.00795   0.00000   0.01346   0.07289   0.14507
  19        6D+1        0.00000   0.04821   0.00000   0.00000   0.00000
  20        6D-1        0.00000  -0.04538   0.00000   0.00000   0.00000
  21        6D+2       -0.02371   0.00000   0.04332   0.04569  -0.06475
  22        6D-2        0.02171   0.00000  -0.00057  -0.02289  -0.02131
  23        7D 0        0.16744   0.00000   0.63379  -0.58799   0.09275
  24        7D+1        0.00000  -0.54616   0.00000   0.00000   0.00000
  25        7D-1        0.00000  -0.34402   0.00000   0.00000   0.00000
  26        7D+2        0.53952   0.00000   0.52809  -0.31371   0.00473
  27        7D-2       -0.27264   0.00000   0.11272  -0.05724   0.16218
  28 2   H  1S          0.01911  -0.10164   0.04371   0.01837   0.56543
  29        2S         -0.14133   0.11418  -0.34665   0.35588  -0.68016
  30        3S          0.04149  -0.28016   0.08395   0.00500   1.06194
  31        4PX         0.72932   0.54991  -0.23025   0.14360  -0.09221
  32        4PY         0.36557   0.50285   0.27580  -0.57687   0.10940
  33        4PZ         0.01970   0.01725  -0.04903   0.12047  -0.62034
  34 3   H  1S          0.01911   0.10164   0.04371   0.01837   0.56543
  35        2S         -0.14133  -0.11418  -0.34665   0.35588  -0.68016
  36        3S          0.04149   0.28016   0.08395   0.00500   1.06194
  37        4PX         0.72932  -0.54991  -0.23025   0.14360  -0.09221
  38        4PY         0.36557  -0.50285   0.27580  -0.57687   0.10940
  39        4PZ        -0.01970   0.01725   0.04903  -0.12047   0.62034
  40 4   F  1S          0.01559   0.00000   0.10212   0.03981  -0.01064
  41        2S          0.03101   0.00000   0.20553   0.08058  -0.02172
  42        2PX        -0.01726   0.00000   0.00607  -0.01100   0.00897
  43        2PY         0.00773   0.00000   0.02813   0.01555   0.00014
  44        2PZ         0.00000  -0.01362   0.00000   0.00000   0.00000
  45        3S         -0.24934   0.00000  -1.65947  -0.64336   0.18576
  46        3PX        -0.06028   0.00000   0.00319  -0.00336   0.00975
  47        3PY         0.06095   0.00000   0.05184  -0.06487   0.01591
  48        3PZ         0.00000   0.04150   0.00000   0.00000   0.00000
  49        4S          0.86312   0.00000   3.70812   0.79521  -0.42819
  50        4PX         0.10310   0.00000   0.04083  -0.03462   0.03354
  51        4PY         0.17334   0.00000   0.63396  -0.02055  -0.14201
  52        4PZ         0.00000  -0.30374   0.00000   0.00000   0.00000
  53        5S         -0.30375   0.00000  -1.78928  -0.66264  -0.58135
  54        5PX        -0.04896   0.00000  -0.02776   0.05533  -0.05760
  55        5PY        -0.02900   0.00000  -0.17710  -0.04191  -0.35259
  56        5PZ         0.00000   0.15334   0.00000   0.00000   0.00000
  57        6D 0        0.00168   0.00000   0.00791  -0.00282  -0.00345
  58        6D+1        0.00000  -0.00151   0.00000   0.00000   0.00000
  59        6D-1        0.00000   0.00687   0.00000   0.00000   0.00000
  60        6D+2        0.00144   0.00000   0.00973   0.00598   0.00174
  61        6D-2        0.00170   0.00000  -0.00219   0.00325  -0.00447
  62        7D 0       -0.10345   0.00000   0.26048  -0.43871  -0.33191
  63        7D+1        0.00000  -0.33474   0.00000   0.00000   0.00000
  64        7D-1        0.00000   0.33524   0.00000   0.00000   0.00000
  65        7D+2        0.05802   0.00000   0.09937   0.50521   0.17557
  66        7D-2       -0.05087   0.00000  -0.06168   0.19427  -0.18872
                          41        42        43        44        45
                           V         V         V         V         V
     Eigenvalues --     2.08633   2.20097   2.21328   2.36588   2.39782
   1 1   C  1S          0.00000   0.02182   0.00000  -0.01526   0.00000
   2        2S          0.00000   0.04550   0.00000  -0.03180   0.00000
   3        2PX         0.00000  -0.29716   0.00000  -0.26805   0.00000
   4        2PY         0.00000  -0.17936   0.00000   0.22115   0.00000
   5        2PZ        -0.21462   0.00000  -0.50669   0.00000   0.13473
   6        3S          0.00000  -0.24003   0.00000   0.15668   0.00000
   7        3PX         0.00000   0.31625   0.00000   0.16246   0.00000
   8        3PY         0.00000  -0.05139   0.00000   0.24238   0.00000
   9        3PZ        -0.40278   0.00000  -0.00810   0.00000  -1.82117
  10        4S          0.00000  -0.47163   0.00000   0.50485   0.00000
  11        4PX         0.00000  -0.35520   0.00000  -0.43185   0.00000
  12        4PY         0.00000  -0.53962   0.00000   0.94081   0.00000
  13        4PZ        -0.20019   0.00000  -1.12777   0.00000  -1.32321
  14        5S          0.00000  -0.18956   0.00000   0.15710   0.00000
  15        5PX         0.00000   0.09797   0.00000   0.00044   0.00000
  16        5PY         0.00000  -0.00551   0.00000   0.00938   0.00000
  17        5PZ        -0.20688   0.00000  -0.37835   0.00000   0.30525
  18        6D 0        0.00000   0.07945   0.00000  -0.14179   0.00000
  19        6D+1       -0.06099   0.00000  -0.07795   0.00000   0.03073
  20        6D-1        0.09475   0.00000   0.13718   0.00000   0.14630
  21        6D+2        0.00000  -0.01441   0.00000  -0.05485   0.00000
  22        6D-2        0.00000  -0.16213   0.00000  -0.06425   0.00000
  23        7D 0        0.00000  -0.52473   0.00000   1.49207   0.00000
  24        7D+1       -0.30682   0.00000   0.64945   0.00000   0.53234
  25        7D-1       -0.43399   0.00000  -0.53385   0.00000  -1.85085
  26        7D+2        0.00000   0.00835   0.00000   0.40364   0.00000
  27        7D-2        0.00000   0.65354   0.00000   0.43232   0.00000
  28 2   H  1S          0.31932   0.30950   0.60049  -0.31256  -0.48736
  29        2S         -0.05970   0.18613  -0.02207  -0.65270   3.14310
  30        3S          0.55251   0.41164   1.17044  -0.43381  -0.61064
  31        4PX         0.45723   0.09399  -0.14583  -0.38628   0.31014
  32        4PY        -0.05178  -0.11692  -0.18847   0.65313  -0.12336
  33        4PZ        -0.38510  -0.25296  -0.45076   0.00238  -1.05322
  34 3   H  1S         -0.31932   0.30950  -0.60049  -0.31256   0.48736
  35        2S          0.05970   0.18613   0.02207  -0.65270  -3.14310
  36        3S         -0.55251   0.41164  -1.17044  -0.43381   0.61064
  37        4PX        -0.45723   0.09399   0.14583  -0.38628  -0.31014
  38        4PY         0.05178  -0.11692   0.18847   0.65313   0.12336
  39        4PZ        -0.38510   0.25296  -0.45076  -0.00238  -1.05322
  40 4   F  1S          0.00000   0.00058   0.00000  -0.00056   0.00000
  41        2S          0.00000   0.00131   0.00000  -0.00146   0.00000
  42        2PX         0.00000  -0.04093   0.00000  -0.01812   0.00000
  43        2PY         0.00000  -0.00264   0.00000  -0.01034   0.00000
  44        2PZ         0.00134   0.00000  -0.00473   0.00000   0.03699
  45        3S          0.00000  -0.00996   0.00000  -0.00668   0.00000
  46        3PX         0.00000  -0.06292   0.00000  -0.04088   0.00000
  47        3PY         0.00000  -0.02107   0.00000   0.05157   0.00000
  48        3PZ         0.00166   0.00000  -0.01445   0.00000   0.04205
  49        4S          0.00000  -0.21124   0.00000   0.89745   0.00000
  50        4PX         0.00000   0.40140   0.00000   0.29475   0.00000
  51        4PY         0.00000  -0.04389   0.00000   0.44623   0.00000
  52        4PZ        -0.14127   0.00000  -0.10564   0.00000  -0.53385
  53        5S          0.00000  -0.22414   0.00000   0.43364   0.00000
  54        5PX         0.00000   0.12561   0.00000   0.08036   0.00000
  55        5PY         0.00000  -0.13062   0.00000   0.16139   0.00000
  56        5PZ         0.05161   0.00000   0.22323   0.00000   0.12497
  57        6D 0        0.00000   0.00522   0.00000  -0.01153   0.00000
  58        6D+1        0.00844   0.00000  -0.00783   0.00000  -0.00283
  59        6D-1        0.00506   0.00000   0.00815   0.00000  -0.00839
  60        6D+2        0.00000  -0.00025   0.00000  -0.00117   0.00000
  61        6D-2        0.00000   0.01052   0.00000   0.00678   0.00000
  62        7D 0        0.00000   0.33837   0.00000  -0.61448   0.00000
  63        7D+1        0.73251   0.00000  -0.54250   0.00000  -0.18370
  64        7D-1        0.14035   0.00000   0.14078   0.00000  -0.63251
  65        7D+2        0.00000  -0.12796   0.00000   0.01122   0.00000
  66        7D-2        0.00000   0.86560   0.00000   0.44460   0.00000
                          46        47        48        49        50
                           V         V         V         V         V
     Eigenvalues --     2.58422   2.72233   2.73361   2.83103   3.09337
   1 1   C  1S          0.00992   0.00000  -0.01412  -0.06616   0.00000
   2        2S         -0.00043   0.00000  -0.04251  -0.16383   0.00000
   3        2PX         0.11683   0.00000  -1.15867   0.41473   0.00000
   4        2PY         0.21251   0.00000  -0.23868  -0.32637   0.00000
   5        2PZ         0.00000  -0.30717   0.00000   0.00000  -0.98291
   6        3S          0.21410   0.00000   0.31400   1.07848   0.00000
   7        3PX        -0.37088   0.00000   1.38954  -0.91712   0.00000
   8        3PY         1.00989   0.00000   0.40388   0.53258   0.00000
   9        3PZ         0.00000  -0.42241   0.00000   0.00000   1.98054
  10        4S         -0.44218   0.00000   1.16561   4.24443   0.00000
  11        4PX        -0.07475   0.00000  -0.71703  -0.08532   0.00000
  12        4PY         1.06583   0.00000  -0.32944  -1.05826   0.00000
  13        4PZ         0.00000  -1.01781   0.00000   0.00000   0.14255
  14        5S         -0.56379   0.00000  -0.09086  -0.33483   0.00000
  15        5PX         0.05993   0.00000   0.22139   0.01754   0.00000
  16        5PY        -0.19194   0.00000  -0.02459  -0.11604   0.00000
  17        5PZ         0.00000   0.20475   0.00000   0.00000  -0.09176
  18        6D 0       -0.07177   0.00000   0.05465  -0.10851   0.00000
  19        6D+1        0.00000   0.02643   0.00000   0.00000   0.69493
  20        6D-1        0.00000  -0.21093   0.00000   0.00000  -0.17703
  21        6D+2       -0.28314   0.00000   0.01267   0.26780   0.00000
  22        6D-2       -0.01088   0.00000   0.15928  -0.02674   0.00000
  23        7D 0        0.41266   0.00000   0.10530   0.72191   0.00000
  24        7D+1        0.00000   0.21276   0.00000   0.00000  -0.71504
  25        7D-1        0.00000   0.95792   0.00000   0.00000   0.42748
  26        7D+2        0.44427   0.00000  -0.20979  -0.67798   0.00000
  27        7D-2       -0.15654   0.00000  -0.28695  -0.05884   0.00000
  28 2   H  1S          0.64460  -0.73800   0.31018   0.51704  -0.13448
  29        2S         -1.67352   1.30708  -0.85809  -2.49730  -1.09916
  30        3S          0.66832  -0.29718   0.21712   0.59954   0.31864
  31        4PX        -0.03321  -0.02326  -0.18012  -0.19213  -0.02314
  32        4PY         0.03857  -0.64379   0.03714   0.46293   0.23428
  33        4PZ         0.54682  -0.24196   0.24143   0.73881   0.28071
  34 3   H  1S          0.64460   0.73800   0.31018   0.51704   0.13448
  35        2S         -1.67352  -1.30708  -0.85809  -2.49730   1.09916
  36        3S          0.66832   0.29718   0.21712   0.59954  -0.31864
  37        4PX        -0.03321   0.02326  -0.18012  -0.19213   0.02314
  38        4PY         0.03857   0.64379   0.03714   0.46293  -0.23428
  39        4PZ        -0.54682  -0.24196  -0.24143  -0.73881   0.28071
  40 4   F  1S          0.03296   0.00000  -0.00730  -0.03100   0.00000
  41        2S          0.06580   0.00000  -0.01462  -0.06316   0.00000
  42        2PX         0.00237   0.00000   0.00962  -0.00235   0.00000
  43        2PY        -0.09600   0.00000   0.01457   0.05913   0.00000
  44        2PZ         0.00000  -0.02314   0.00000   0.00000   0.00928
  45        3S         -0.59726   0.00000   0.12304   0.58627   0.00000
  46        3PX        -0.00056   0.00000   0.02943  -0.02466   0.00000
  47        3PY        -0.14218   0.00000   0.05405   0.18597   0.00000
  48        3PZ         0.00000  -0.08992   0.00000   0.00000   0.06395
  49        4S          1.70069   0.00000  -0.33852  -1.50658   0.00000
  50        4PX        -0.01668   0.00000  -0.24044   0.13770   0.00000
  51        4PY         1.21096   0.00000  -0.22436  -1.09823   0.00000
  52        4PZ         0.00000   0.77100   0.00000   0.00000  -0.23432
  53        5S          0.45492   0.00000  -0.53997  -1.83971   0.00000
  54        5PX         0.00293   0.00000   0.07373  -0.00676   0.00000
  55        5PY        -0.00551   0.00000  -0.22184  -0.70822   0.00000
  56        5PZ         0.00000   0.09424   0.00000   0.00000   0.08771
  57        6D 0       -0.00787   0.00000   0.00374   0.00779   0.00000
  58        6D+1        0.00000   0.00079   0.00000   0.00000   0.00582
  59        6D-1        0.00000   0.01477   0.00000   0.00000  -0.01309
  60        6D+2       -0.01857   0.00000   0.00786   0.02333   0.00000
  61        6D-2       -0.00071   0.00000  -0.00423   0.00367   0.00000
  62        7D 0       -0.34377   0.00000   0.02639   0.08000   0.00000
  63        7D+1        0.00000  -0.02096   0.00000   0.00000   0.13392
  64        7D-1        0.00000   0.75801   0.00000   0.00000  -0.34734
  65        7D+2       -0.64039   0.00000   0.11663   0.50766   0.00000
  66        7D-2        0.00051   0.00000  -0.36640   0.19482   0.00000
                          51        52        53        54        55
                           V         V         V         V         V
     Eigenvalues --     3.16194   3.21690   3.26602   3.49692   4.04497
   1 1   C  1S          0.01676   0.00000  -0.00441  -0.06191   0.00000
   2        2S          0.03612   0.00000  -0.00787  -0.11744   0.00000
   3        2PX         0.08541   0.00000   0.16662   0.06966   0.00000
   4        2PY        -1.17782   0.00000  -0.09797  -0.02991   0.00000
   5        2PZ         0.00000  -0.49668   0.00000   0.00000  -0.72485
   6        3S         -0.08921   0.00000   0.07548   0.90778   0.00000
   7        3PX        -0.11886   0.00000  -0.27906  -0.28586   0.00000
   8        3PY         2.27222   0.00000   0.17885  -0.04430   0.00000
   9        3PZ         0.00000   0.95019   0.00000   0.00000   2.69209
  10        4S         -2.39595   0.00000  -0.14217   1.02918   0.00000
  11        4PX        -0.00870   0.00000   0.19395  -0.00654   0.00000
  12        4PY         1.32050   0.00000   0.04223  -0.15645   0.00000
  13        4PZ         0.00000  -0.33238   0.00000   0.00000  -0.04022
  14        5S         -0.07342   0.00000  -0.06152  -0.12833   0.00000
  15        5PX        -0.00050   0.00000   0.03876  -0.01954   0.00000
  16        5PY         0.03214   0.00000  -0.00278   0.01093   0.00000
  17        5PZ         0.00000  -0.14862   0.00000   0.00000  -0.13634
  18        6D 0       -0.47867   0.00000   0.22713   0.60988   0.00000
  19        6D+1        0.00000  -0.76007   0.00000   0.00000  -0.53103
  20        6D-1        0.00000  -0.68414   0.00000   0.00000   0.99213
  21        6D+2       -0.34758   0.00000  -0.21197  -0.88830   0.00000
  22        6D-2       -0.03970   0.00000   1.06781  -0.32287   0.00000
  23        7D 0        1.08911   0.00000  -0.01332  -0.02806   0.00000
  24        7D+1        0.00000   0.23386   0.00000   0.00000  -0.22692
  25        7D-1        0.00000   0.33436   0.00000   0.00000   0.28085
  26        7D+2        1.12968   0.00000   0.16900   0.25417   0.00000
  27        7D-2       -0.05115   0.00000  -0.49796   0.11178   0.00000
  28 2   H  1S         -0.28061  -0.08596  -0.04151  -0.08329  -0.34854
  29        2S         -0.15822  -0.29390  -0.04574  -0.52772  -1.41166
  30        3S          0.04262   0.33119   0.06693   0.02466   0.42959
  31        4PX        -0.02462   0.01087  -0.01056  -0.12661  -0.22039
  32        4PY        -0.04121   0.11743   0.03208   0.26746   0.48218
  33        4PZ        -0.00970   0.08247   0.02629   0.45632   0.97165
  34 3   H  1S         -0.28061   0.08596  -0.04151  -0.08329   0.34854
  35        2S         -0.15822   0.29390  -0.04574  -0.52772   1.41166
  36        3S          0.04262  -0.33119   0.06693   0.02466  -0.42959
  37        4PX        -0.02462  -0.01087  -0.01056  -0.12661   0.22039
  38        4PY        -0.04121  -0.11743   0.03208   0.26746  -0.48218
  39        4PZ         0.00970   0.08247  -0.02629  -0.45632   0.97165
  40 4   F  1S          0.01182   0.00000  -0.00038  -0.01080   0.00000
  41        2S          0.02618   0.00000  -0.00087  -0.02598   0.00000
  42        2PX        -0.00137   0.00000   0.01148  -0.00256   0.00000
  43        2PY        -0.00470   0.00000  -0.00406  -0.07369   0.00000
  44        2PZ         0.00000  -0.00047   0.00000   0.00000   0.00691
  45        3S         -0.40918   0.00000   0.00019   0.32330   0.00000
  46        3PX         0.00146   0.00000  -0.06503   0.01076   0.00000
  47        3PY         0.13165   0.00000   0.02140   0.14220   0.00000
  48        3PZ         0.00000   0.06770   0.00000   0.00000  -0.00159
  49        4S          2.79463   0.00000   0.15671  -0.64685   0.00000
  50        4PX        -0.01249   0.00000   0.02858   0.03096   0.00000
  51        4PY         1.64859   0.00000   0.08019  -0.61073   0.00000
  52        4PZ         0.00000  -0.16228   0.00000   0.00000  -0.12904
  53        5S          1.07872   0.00000   0.03773  -0.26519   0.00000
  54        5PX         0.00482   0.00000  -0.17826   0.02411   0.00000
  55        5PY         0.19743   0.00000  -0.01252  -0.09255   0.00000
  56        5PZ         0.00000   0.22063   0.00000   0.00000   0.08724
  57        6D 0        0.00119   0.00000   0.00055   0.00536   0.00000
  58        6D+1        0.00000   0.00147   0.00000   0.00000   0.00848
  59        6D-1        0.00000  -0.01752   0.00000   0.00000   0.00383
  60        6D+2        0.01405   0.00000   0.00216   0.01279   0.00000
  61        6D-2       -0.00074   0.00000   0.01931  -0.00373   0.00000
  62        7D 0       -0.23420   0.00000   0.01032   0.23548   0.00000
  63        7D+1        0.00000  -0.00506   0.00000   0.00000   0.05628
  64        7D-1        0.00000  -0.29974   0.00000   0.00000  -0.07997
  65        7D+2       -0.21395   0.00000   0.01264   0.41082   0.00000
  66        7D-2       -0.01149   0.00000   0.22961  -0.00910   0.00000
                          56        57        58        59        60
                           V         V         V         V         V
     Eigenvalues --     4.08791   6.26165   6.27444   6.55101   9.04904
   1 1   C  1S          0.00783   0.00009   0.00000   0.02369   0.00000
   2        2S          0.00923  -0.00010   0.00000  -0.00035   0.00000
   3        2PX         0.08919   0.00823   0.00000   0.02208   0.00000
   4        2PY        -0.65673  -0.00080   0.00000  -0.22654   0.00000
   5        2PZ         0.00000   0.00000  -0.00101   0.00000   0.03139
   6        3S         -0.04647   0.00199   0.00000   0.07645   0.00000
   7        3PX        -0.35245   0.02858   0.00000  -0.10524   0.00000
   8        3PY         2.42828   0.00416   0.00000   0.71470   0.00000
   9        3PZ         0.00000   0.00000   0.04533   0.00000  -0.15846
  10        4S         -0.48571  -0.00040   0.00000   0.52822   0.00000
  11        4PX         0.04400   0.05818   0.00000  -0.05616   0.00000
  12        4PY         0.13903  -0.00093   0.00000  -0.13281   0.00000
  13        4PZ         0.00000   0.00000   0.06357   0.00000  -0.17901
[...]
                                            0.0049  0.0004
     8. (0.98458) LP ( 2) F   4           s(  0.00%)p 1.00( 99.94%)d 0.00(  0.06%)
                                            0.0000  0.0000  0.0000  0.0000  0.0000
                                            0.0000  0.0000  0.0000  0.0000  0.0000
                                            0.0000  0.0000  0.0000  0.9997  0.0020
                                            0.0003 -0.0013  0.0000  0.0000 -0.0000
                                           -0.0001  0.0243 -0.0010  0.0000  0.0000
                                            0.0000  0.0000
     9. (0.90427) LP ( 3) F   4           s(  0.24%)p99.99( 99.67%)d 0.40(  0.09%)
                                           -0.0001  0.0487 -0.0010 -0.0005  0.0000
                                           -0.9981 -0.0044  0.0004 -0.0003  0.0214
                                            0.0003 -0.0001 -0.0010 -0.0000 -0.0000
                                           -0.0000 -0.0000 -0.0306  0.0012 -0.0000
                                           -0.0000 -0.0000 -0.0000 -0.0004 -0.0001
                                           -0.0011  0.0001
    10. (0.00234) RY*( 1) C   1           s( 36.40%)p 1.73( 62.79%)d 0.02(  0.81%)
                                           -0.0000 -0.0447  0.6003  0.0393  0.0004
                                           -0.0055  0.0173  0.0076 -0.0050  0.1424
                                            0.7140 -0.3121 -0.0044 -0.0000 -0.0000
                                           -0.0000 -0.0000  0.0425 -0.0265  0.0000
                                           -0.0000 -0.0000  0.0000 -0.0440 -0.0499
                                            0.0065 -0.0336
    11. (0.00077) RY*( 2) C   1           s(  0.00%)p 1.00(  9.95%)d 9.05( 90.05%)
                                           -0.0000  0.0000  0.0000 -0.0000  0.0000
                                           -0.0000 -0.0000 -0.0000  0.0000  0.0000
                                           -0.0000  0.0000  0.0000 -0.0142 -0.2296
                                            0.1815 -0.1167  0.0000 -0.0000  0.0884
                                           -0.2361  0.9095 -0.0986 -0.0000  0.0000
                                            0.0000 -0.0000
    12. (0.00000) RY*( 3) C   1           s( 58.72%)p 0.70( 41.28%)d 0.00(  0.00%)
    13. (0.00000) RY*( 4) C   1           s(  0.03%)p99.99( 99.97%)d 0.01(  0.00%)
    14. (0.00000) RY*( 5) C   1           s(  0.00%)p 1.00(100.00%)d 0.00(  0.00%)
    15. (0.00000) RY*( 6) C   1           s(  0.00%)p 1.00(100.00%)d 0.00(  0.00%)
    16. (0.00000) RY*( 7) C   1           s( 99.90%)p 0.00(  0.10%)d 0.00(  0.00%)
    17. (0.00000) RY*( 8) C   1           s(  4.00%)p24.03( 96.00%)d 0.00(  0.00%)
    18. (0.00000) RY*( 9) C   1           s(  0.00%)p 1.00(100.00%)d 0.00(  0.00%)
    19. (0.00000) RY*(10) C   1           s(  0.00%)p 1.00( 94.00%)d 0.06(  6.00%)
    20. (0.00000) RY*(11) C   1           s(  0.00%)p 1.00( 96.61%)d 0.04(  3.39%)
    21. (0.00000) RY*(12) C   1           s(  0.00%)p 1.00( 98.67%)d 0.01(  1.33%)
    22. (0.00000) RY*(13) C   1           s(  0.10%)p 8.78(  0.89%)d99.99( 99.01%)
    23. (0.00000) RY*(14) C   1           s(  0.03%)p 4.98(  0.14%)d99.99( 99.83%)
    24. (0.00000) RY*(15) C   1           s(  0.00%)p 1.00(  0.11%)d99.99( 99.89%)
    25. (0.00000) RY*(16) C   1           s(  0.00%)p 1.00(  0.61%)d99.99( 99.39%)
    26. (0.00000) RY*(17) C   1           s(100.00%)p 0.00(  0.00%)
    27. (0.00000) RY*(18) C   1           s(  0.00%)p 1.00(  0.12%)d99.99( 99.88%)
    28. (0.00000) RY*(19) C   1           s(  0.14%)p 1.66(  0.22%)d99.99( 99.64%)
    29. (0.00000) RY*(20) C   1           s(  0.10%)p 2.41(  0.25%)d99.99( 99.65%)
    30. (0.00000) RY*(21) C   1           s(  0.02%)p 7.18(  0.12%)d99.99( 99.86%)
    31. (0.00000) RY*(22) C   1           s(  0.04%)p 2.13(  0.09%)d99.99( 99.86%)
    32. (0.00028) RY*( 1) H   2           s( 79.74%)p 0.25( 20.26%)
                                            0.0066  0.8929  0.0111 -0.1557 -0.2667
                                            0.3275
    33. (0.00007) RY*( 2) H   2           s( 15.15%)p 5.60( 84.85%)
    34. (0.00003) RY*( 3) H   2           s( 98.32%)p 0.02(  1.68%)
    35. (0.00001) RY*( 4) H   2           s(  6.15%)p15.27( 93.85%)
    36. (0.00000) RY*( 5) H   2           s(  0.74%)p99.99( 99.26%)
    37. (0.00028) RY*( 1) H   3           s( 79.74%)p 0.25( 20.26%)
                                            0.0066  0.8929  0.0111 -0.1557 -0.2667
                                           -0.3275
    38. (0.00007) RY*( 2) H   3           s( 15.15%)p 5.60( 84.85%)
    39. (0.00003) RY*( 3) H   3           s( 98.32%)p 0.02(  1.68%)
    40. (0.00001) RY*( 4) H   3           s(  6.15%)p15.27( 93.85%)
    41. (0.00000) RY*( 5) H   3           s(  0.74%)p99.99( 99.26%)
    42. (0.00073) RY*( 1) F   4           s(  0.00%)p 1.00( 93.13%)d 0.07(  6.87%)
                                            0.0000  0.0000  0.0000  0.0000  0.0000
                                            0.0000  0.0000  0.0000  0.0000  0.0000
                                            0.0000  0.0000  0.0000  0.0040  0.9642
                                           -0.0104 -0.0383  0.0000  0.0000  0.0473
                                           -0.0129 -0.2467 -0.0734  0.0000  0.0000
                                            0.0000  0.0000
    43. (0.00025) RY*( 2) F   4           s( 36.15%)p 1.72( 62.31%)d 0.04(  1.54%)
                                            0.0000  0.0003 -0.4233  0.4270  0.0025
                                            0.0025 -0.4120 -0.0084  0.0247 -0.0033
                                            0.6238 -0.0495 -0.2473 -0.0000 -0.0000
                                           -0.0000 -0.0000 -0.0021  0.0441 -0.0000
                                           -0.0000 -0.0000 -0.0000  0.1088 -0.0029
                                           -0.0264  0.0298
    44. (0.00000) RY*( 3) F   4           s(100.00%)p 0.00(  0.00%)d 0.00(  0.00%)
    45. (0.00000) RY*( 4) F   4           s( 31.79%)p 2.15( 68.21%)d 0.00(  0.00%)
    46. (0.00000) RY*( 5) F   4           s(  0.00%)p 1.00(100.00%)d 0.00(  0.00%)
    47. (0.00000) RY*( 6) F   4           s(  0.02%)p99.99( 99.98%)d 0.04(  0.00%)
    48. (0.00000) RY*( 7) F   4           s( 28.90%)p 2.46( 71.10%)d 0.00(  0.00%)
    49. (0.00000) RY*( 8) F   4           s(  0.09%)p99.99( 99.90%)d 0.03(  0.00%)
    50. (0.00000) RY*( 9) F   4           s(  2.46%)p39.68( 97.54%)d 0.00(  0.00%)
    51. (0.00000) RY*(10) F   4           s( 99.97%)p 0.00(  0.03%)d 0.00(  0.00%)
    52. (0.00000) RY*(11) F   4           s(  0.00%)p 1.00(100.00%)d 0.00(  0.00%)
    53. (0.00000) RY*(12) F   4           s(  0.00%)p 1.00(100.00%)
    54. (0.00000) RY*(13) F   4           s(  0.00%)p 1.00(  0.09%)d99.99( 99.91%)
    55. (0.00000) RY*(14) F   4           s(  0.07%)p 1.71(  0.12%)d99.99( 99.81%)
    56. (0.00000) RY*(15) F   4           s(  0.00%)p 1.00(  0.24%)d99.99( 99.76%)
    57. (0.00000) RY*(16) F   4           s(  0.00%)p 1.00(  0.02%)d99.99( 99.98%)
    58. (0.00000) RY*(17) F   4           s(  0.00%)p 1.00(  6.17%)d15.21( 93.83%)
    59. (0.00000) RY*(18) F   4           s(  0.00%)p 1.00(  0.50%)d99.99( 99.50%)
    60. (0.00001) RY*(19) F   4           s(  0.46%)p 1.88(  0.86%)d99.99( 98.68%)
    61. (0.00000) RY*(20) F   4           s(  0.00%)p 0.00(  0.00%)d 1.00(100.00%)
    62. (0.00000) RY*(21) F   4           s(  0.03%)p 2.71(  0.08%)d99.99( 99.89%)
    63. (0.00000) RY*(22) F   4           s(  0.03%)p 1.70(  0.06%)d99.99( 99.91%)
    64. (0.00805) BD*( 1) C   1 - H   2  
                ( 44.35%)   0.6659* C   1 s( 36.80%)p 1.72( 63.12%)d 0.00(  0.09%)
                                           -0.0000 -0.6064  0.0163  0.0001 -0.0007
                                            0.1046 -0.0084 -0.0006  0.0006 -0.3466
                                            0.0182  0.0009  0.0026 -0.7067  0.0167
                                            0.0038  0.0012  0.0076 -0.0013  0.0122
                                            0.0020 -0.0091 -0.0095  0.0046 -0.0043
                                           -0.0200 -0.0053
                ( 55.65%)  -0.7460* H   2 s( 99.90%)p 0.00(  0.10%)
                                           -0.9995 -0.0000  0.0003 -0.0097  0.0130
                                            0.0262
    65. (0.00805) BD*( 1) C   1 - H   3  
                ( 44.35%)   0.6659* C   1 s( 36.80%)p 1.72( 63.12%)d 0.00(  0.09%)
                                           -0.0000 -0.6064  0.0163  0.0001 -0.0007
                                            0.1046 -0.0084 -0.0006  0.0006 -0.3466
                                            0.0182  0.0009  0.0026  0.7067 -0.0167
                                           -0.0038 -0.0012  0.0076 -0.0013 -0.0122
                                           -0.0020  0.0091  0.0095  0.0046 -0.0043
                                           -0.0200 -0.0053
                ( 55.65%)  -0.7460* H   3 s( 99.90%)p 0.00(  0.10%)
                                           -0.9995 -0.0000  0.0003 -0.0097  0.0130
                                           -0.0262
    66. (0.00237) BD*( 1) C   1 - F   4  
                ( 74.52%)   0.8633* C   1 s( 26.10%)p 2.82( 73.58%)d 0.01(  0.32%)
                                            0.0000  0.5029  0.0901 -0.0016  0.0005
                                            0.0709  0.0039  0.0015 -0.0005 -0.8465
                                            0.1191 -0.0016 -0.0050  0.0000  0.0000
                                            0.0000  0.0000  0.0044 -0.0038 -0.0000
                                            0.0000  0.0000 -0.0000 -0.0395 -0.0301
                                           -0.0231 -0.0131
                ( 25.48%)  -0.5048* F   4 s( 29.04%)p 2.44( 70.79%)d 0.01(  0.17%)
                                           -0.0000  0.5385 -0.0201 -0.0016 -0.0001
                                            0.0443 -0.0010 -0.0003  0.0000  0.8402
                                           -0.0035 -0.0047  0.0020  0.0000  0.0000
                                            0.0000  0.0000  0.0009  0.0001  0.0000
                                            0.0000  0.0000  0.0000 -0.0352 -0.0011
                                           -0.0205 -0.0003


 NHO Directionality and "Bond Bending" (deviations from line of nuclear centers)

         [Thresholds for printing:  angular deviation  >  1.0 degree]
                                    hybrid p-character > 25.0%
                                    orbital occupancy  >  0.10e

                                Line of Centers        Hybrid 1              Hybrid 2
                                ---------------  -------------------   ------------------
                NBO               Theta   Phi    Theta   Phi    Dev    Theta   Phi    Dev
 ========================================================================================
     1. BD (   1) C   1 - H   2    28.5  118.3    26.3  106.5   5.8      --     --    --
     2. BD (   1) C   1 - H   3   151.5  118.3   153.7  106.5   5.8      --     --    --
     3. BD (   1) C   1 - F   4    90.0  270.0    90.0  275.9   5.9     90.0   87.0   3.0
     7. LP (   1) F   4             --     --     90.0  273.2   --       --     --    --
     8. LP (   2) F   4             --     --      0.0    0.0   --       --     --    --
     9. LP (   3) F   4             --     --     90.0  178.8   --       --     --    --


 Second Order Perturbation Theory Analysis of Fock Matrix in NBO Basis

     Threshold for printing:   0.25 kcal/mol
                                                                              E(2)  E(j)-E(i) F(i,j)
         Donor NBO (i)                     Acceptor NBO (j)                 kcal/mol   a.u.    a.u. 
 ===================================================================================================

 within unit  1
   1. BD (   1) C   1 - H   2        / 42. RY*(   1) F   4                    0.25    1.27    0.023
   1. BD (   1) C   1 - H   2        / 66. BD*(   1) C   1 - F   4            0.99    0.83    0.036
   2. BD (   1) C   1 - H   3        / 42. RY*(   1) F   4                    0.25    1.27    0.023
   2. BD (   1) C   1 - H   3        / 66. BD*(   1) C   1 - F   4            0.99    0.83    0.036
   3. BD (   1) C   1 - F   4        / 10. RY*(   1) C   1                    0.26    1.82    0.028
   4. CR (   1) C   1                /  6. LP*(   1) C   1                    0.42   10.09    0.086
   4. CR (   1) C   1                / 66. BD*(   1) C   1 - F   4            1.24   10.43    0.144
   5. CR (   1) F   4                / 10. RY*(   1) C   1                    0.99   25.28    0.200
   6. LP*(   1) C   1                / 13. RY*(   4) C   1                    0.72    0.49    0.076
   6. LP*(   1) C   1                / 22. RY*(  13) C   1                    0.61    2.24    0.151
   7. LP (   1) F   4                / 10. RY*(   1) C   1                    3.16    1.86    0.097
   7. LP (   1) F   4                / 17. RY*(   8) C   1                    0.28    3.40    0.039
   8. LP (   2) F   4                / 11. RY*(   2) C   1                    0.56    2.46    0.047
   8. LP (   2) F   4                / 64. BD*(   1) C   1 - H   2            3.39    0.80    0.066
   8. LP (   2) F   4                / 65. BD*(   1) C   1 - H   3            3.39    0.80    0.066
   9. LP (   3) F   4                /  6. LP*(   1) C   1                   28.52    0.34    0.125
   9. LP (   3) F   4                / 13. RY*(   4) C   1                    0.43    0.83    0.025
   9. LP (   3) F   4                / 22. RY*(  13) C   1                    0.51    2.58    0.048


 Natural Bond Orbitals (Summary):

                                                            Principal Delocalizations
           NBO                        Occupancy    Energy   (geminal,vicinal,remote)
 ====================================================================================
 Molecular unit  1  (CH2F)
     1. BD (   1) C   1 - H   2          0.99785    -0.56123  66(g)
     2. BD (   1) C   1 - H   3          0.99785    -0.56123  66(g)
     3. BD (   1) C   1 - F   4          0.99931    -1.00534  10(g)
     4. CR (   1) C   1                  0.99965   -10.16062  66(g),6(g)
     5. CR (   1) F   4                  0.99997   -24.46940  10(v)
     6. LP*(   1) C   1                  0.09575    -0.07178   
     7. LP (   1) F   4                  0.99740    -1.04201  10(v),17(v)
     8. LP (   2) F   4                  0.98458    -0.42893  64(v),65(v),11(v)
     9. LP (   3) F   4                  0.90427    -0.41500  6(v),22(v),13(v)
    10. RY*(   1) C   1                  0.00234     0.81330   
    11. RY*(   2) C   1                  0.00077     2.03364   
    12. RY*(   3) C   1                  0.00000     0.49397   
    13. RY*(   4) C   1                  0.00000     0.41383   
    14. RY*(   5) C   1                  0.00000     2.41753   
    15. RY*(   6) C   1                  0.00000     0.53438   
    16. RY*(   7) C   1                  0.00000    23.20027   
    17. RY*(   8) C   1                  0.00000     2.36078   
    18. RY*(   9) C   1                  0.00000     0.51022   
    19. RY*(  10) C   1                  0.00000     0.69593   
    20. RY*(  11) C   1                  0.00000     2.81137   
    21. RY*(  12) C   1                  0.00000     0.45599   
    22. RY*(  13) C   1                  0.00000     2.16797   
    23. RY*(  14) C   1                  0.00000     2.14246   
    24. RY*(  15) C   1                  0.00000     2.29309   
    25. RY*(  16) C   1                  0.00000     2.08093   
    26. RY*(  17) C   1                  0.00000     0.47155   
    27. RY*(  18) C   1                  0.00000     2.56362   
    28. RY*(  19) C   1                  0.00000     2.38896   
    29. RY*(  20) C   1                  0.00000     2.20472   
    30. RY*(  21) C   1                  0.00000     2.54473   
    31. RY*(  22) C   1                  0.00000     2.39026   
    32. RY*(   1) H   2                  0.00028     0.77948   
    33. RY*(   2) H   2                  0.00007     2.21557   
    34. RY*(   3) H   2                  0.00003     2.04059   
    35. RY*(   4) H   2                  0.00001     2.01337   
    36. RY*(   5) H   2                  0.00000     1.65906   
    37. RY*(   1) H   3                  0.00028     0.77948   
    38. RY*(   2) H   3                  0.00007     2.21557   
    39. RY*(   3) H   3                  0.00003     2.04059   
    40. RY*(   4) H   3                  0.00001     2.01337   
    41. RY*(   5) H   3                  0.00000     1.65906   
    42. RY*(   1) F   4                  0.00073     0.71196   
    43. RY*(   2) F   4                  0.00025     0.72739   
    44. RY*(   3) F   4                  0.00000    66.31645   
    45. RY*(   4) F   4                  0.00000     0.90363   
    46. RY*(   5) F   4                  0.00000     6.14012   
    47. RY*(   6) F   4                  0.00000     1.11717   
    48. RY*(   7) F   4                  0.00000     1.05899   
    49. RY*(   8) F   4                  0.00000     6.24594   
    50. RY*(   9) F   4                  0.00000     1.21946   
    51. RY*(  10) F   4                  0.00000     1.74485   
    52. RY*(  11) F   4                  0.00000     6.14194   
    53. RY*(  12) F   4                  0.00000     1.15226   
    54. RY*(  13) F   4                  0.00000     2.23160   
    55. RY*(  14) F   4                  0.00000     9.14487   
    56. RY*(  15) F   4                  0.00000     2.05772   
    57. RY*(  16) F   4                  0.00000     9.00393   
    58. RY*(  17) F   4                  0.00000     2.27666   
    59. RY*(  18) F   4                  0.00000     9.17785   
    60. RY*(  19) F   4                  0.00001     2.60536   
    61. RY*(  20) F   4                  0.00000     9.36044   
    62. RY*(  21) F   4                  0.00000     2.25629   
    63. RY*(  22) F   4                  0.00000     9.12323   
    64. BD*(   1) C   1 - H   2          0.00805     0.37578   
    65. BD*(   1) C   1 - H   3          0.00805     0.37578   
    66. BD*(   1) C   1 - F   4          0.00237     0.27130   
       -------------------------------
              Total Lewis    7.88088  ( 98.5109%)
        Valence non-Lewis    0.11422  (  1.4278%)
        Rydberg non-Lewis    0.00490  (  0.0613%)
       -------------------------------
            Total unit  1    8.00000  (100.0000%)
           Charge unit  1    0.50000
 Leave Link  607 at Wed Sep  5 16:48:00 2018, MaxMem=   805306368 cpu:               6.5 elap:               0.8
 (Enter /home/g16/l9999.exe)
 1\1\GINC-PC13\Stability\UB3LYP\6-311+G(2d,p)\C1H2F1(2)\MASKER\05-Sep-2
 018\0\\#p b3lyp/6-311+g(2d,p) pop=(full,nboread) stable=opt g09def\\CH
 F-c1-1sp 1\\0,2\C,0,0.028866,0.657177,0.\H,0,-0.216498,1.113724,0.9535
 34\H,0,-0.216498,1.113724,-0.953534\F,0,0.028866,-0.685612,0.\\Version
 =ES64L-G16RevA.03\State=2-A'\HF=-139.1223405\S2=0.753374\S2-1=0.\S2A=0
 .750007\RMSD=5.374e-09\Dipole=-0.1784551,0.5232578,0.\Quadrupole=-0.72
 08043,-0.0110868,0.7318911,-0.3837733,0.,0.\PG=CS [SG(C1F1),X(H2)]\\@


 KNIGHT- SIRE, I'VE JUST RETURNED FROM THE FRONT
 KING-   HOW GOES THE BATTLE                    
 KNIGHT- THE SITUATION IS QUITE FLUID           
 KING-   WHAT DOES *THAT* MEAN                  
 KNIGHT- WE'RE UP THE CREEK                     
                THE WIZARD OF ID                
 Job cpu time:       0 days  0 hours  0 minutes 31.4 seconds.
 Elapsed time:       0 days  0 hours  0 minutes  4.0 seconds.
 File lengths (MBytes):  RWF=     43 Int=      0 D2E=      0 Chk=      2 Scr=      1
 Normal termination of Gaussian 16 at Wed Sep  5 16:48:00 2018.
