 Entering Gaussian System, Link 0=g16
 Input=Et0-c1-1sp.gjf
 Output=Et0-c1-1sp.log
 Initial command:
 /home/g16/l1.exe "/home/masker/scratch/Gau-19682.inp" -scrdir="/home/masker/scratch/"
 Entering Link 1 = /home/g16/l1.exe PID=     19683.
  
 Copyright (c) 1988,1990,1992,1993,1995,1998,2003,2009,2016,
            Gaussian, Inc.  All Rights Reserved.
  
 This is part of the Gaussian(R) 16 program.  It is based on
 the Gaussian(R) 09 system (copyright 2009, Gaussian, Inc.),
 the Gaussian(R) 03 system (copyright 2003, Gaussian, Inc.),
 the Gaussian(R) 98 system (copyright 1998, Gaussian, Inc.),
 the Gaussian(R) 94 system (copyright 1995, Gaussian, Inc.),
 the Gaussian 92(TM) system (copyright 1992, Gaussian, Inc.),
 the Gaussian 90(TM) system (copyright 1990, Gaussian, Inc.),
 the Gaussian 88(TM) system (copyright 1988, Gaussian, Inc.),
 the Gaussian 86(TM) system (copyright 1986, Carnegie Mellon
 University), and the Gaussian 82(TM) system (copyright 1983,
 Carnegie Mellon University). Gaussian is a federally registered
 trademark of Gaussian, Inc.
  
 This software contains proprietary and confidential information,
 including trade secrets, belonging to Gaussian, Inc.
  
 This software is provided under written license and may be
 used, copied, transmitted, or stored only in accord with that
 written license.
  
 The following legend is applicable only to US Government
 contracts under FAR:
  
                    RESTRICTED RIGHTS LEGEND
  
 Use, reproduction and disclosure by the US Government is
 subject to restrictions as set forth in subparagraphs (a)
 and (c) of the Commercial Computer Software - Restricted
 Rights clause in FAR 52.227-19.
  
 Gaussian, Inc.
 340 Quinnipiac St., Bldg. 40, Wallingford CT 06492
  
  
 ---------------------------------------------------------------
 Warning -- This program may not be used in any manner that
 competes with the business of Gaussian, Inc. or will provide
 assistance to any competitor of Gaussian, Inc.  The licensee
 of this program is prohibited from giving any competitor of
 Gaussian, Inc. access to this program.  By using this program,
 the user acknowledges that Gaussian, Inc. is engaged in the
 business of creating and licensing software in the field of
 computational chemistry and represents and warrants to the
 licensee that it is not a competitor of Gaussian, Inc. and that
 it will not use this program in any manner prohibited above.
 ---------------------------------------------------------------
  

 Cite this work as:
 Gaussian 16, Revision A.03,
 M. J. Frisch, G. W. Trucks, H. B. Schlegel, G. E. Scuseria, 
 M. A. Robb, J. R. Cheeseman, G. Scalmani, V. Barone, 
 G. A. Petersson, H. Nakatsuji, X. Li, M. Caricato, A. V. Marenich, 
 J. Bloino, B. G. Janesko, R. Gomperts, B. Mennucci, H. P. Hratchian, 
 J. V. Ortiz, A. F. Izmaylov, J. L. Sonnenberg, D. Williams-Young, 
 F. Ding, F. Lipparini, F. Egidi, J. Goings, B. Peng, A. Petrone, 
 T. Henderson, D. Ranasinghe, V. G. Zakrzewski, J. Gao, N. Rega, 
 G. Zheng, W. Liang, M. Hada, M. Ehara, K. Toyota, R. Fukuda, 
 J. Hasegawa, M. Ishida, T. Nakajima, Y. Honda, O. Kitao, H. Nakai, 
 T. Vreven, K. Throssell, J. A. Montgomery, Jr., J. E. Peralta, 
 F. Ogliaro, M. J. Bearpark, J. J. Heyd, E. N. Brothers, K. N. Kudin, 
 V. N. Staroverov, T. A. Keith, R. Kobayashi, J. Normand, 
 K. Raghavachari, A. P. Rendell, J. C. Burant, S. S. Iyengar, 
 J. Tomasi, M. Cossi, J. M. Millam, M. Klene, C. Adamo, R. Cammi, 
 J. W. Ochterski, R. L. Martin, K. Morokuma, O. Farkas, 
 J. B. Foresman, and D. J. Fox, Gaussian, Inc., Wallingford CT, 2016.
 
 ******************************************
 Gaussian 16:  ES64L-G16RevA.03 25-Dec-2016
                 5-Sep-2018 
 ******************************************
 %nprocshared=8
 Will use up to    8 processors via shared memory.
 %mem=6GB
 %chk=Et0-c1-1sp.chk
 -----------------------------------------------------------
 #p b3lyp/6-311+g(2d,p) pop=(full,nboread) stable=opt g09def
 -----------------------------------------------------------
 1/38=1,158=3,167=1,172=1/1;
 2/12=2,17=6,18=5,40=1/2;
 3/5=4,6=6,7=112,11=2,25=1,27=10,30=1,74=-5,75=-4,158=3/1,2,3;
 4/60=-1/1;
 5/5=2,38=5,87=10/2;
 6/7=3,28=1,40=2,87=10/1,7;
 8/6=1,10=90,11=11,87=10/1;
 9/8=-3,42=1,46=1,87=10/14;
 5/5=2,8=3,17=40,38=5,87=10/8(-2);
 6/7=3,28=1,40=2,87=10/1,7;
 99/5=1,9=1/99;
 Using 2006 physical constants.
 Leave Link    1 at Wed Sep  5 16:41:25 2018, MaxMem=   805306368 cpu:               0.3 elap:               0.0
 (Enter /home/g16/l101.exe)
 ------------
 Et0-c1-1sp 1
 ------------
 Symbolic Z-matrix:
 Charge =  0 Multiplicity = 2
 C                     0.01111   0.79539   0. 
 H                    -0.07071   1.35331  -0.92752 
 H                    -0.07071   1.35331   0.92752 
 C                     0.01111  -0.69416   0. 
 H                     0.51044  -1.10183   0.88765 
 H                    -1.01274  -1.11035   0. 
 H                     0.51044  -1.10183  -0.88765 
 
 ITRead=  0  0  0  0  0  0  0
 MicOpt= -1 -1 -1 -1 -1 -1 -1
 NAtoms=      7 NQM=        7 NQMF=       0 NMMI=      0 NMMIF=      0
                NMic=       0 NMicF=      0.
                    Isotopes and Nuclear Properties:
 (Nuclear quadrupole moments (NQMom) in fm**2, nuclear magnetic moments (NMagM)
  in nuclear magnetons)

  Atom         1           2           3           4           5           6           7
 IAtWgt=          12           1           1          12           1           1           1
 AtmWgt=  12.0000000   1.0078250   1.0078250  12.0000000   1.0078250   1.0078250   1.0078250
 NucSpn=           0           1           1           0           1           1           1
 AtZEff=  -0.0000000  -0.0000000  -0.0000000  -0.0000000  -0.0000000  -0.0000000  -0.0000000
 NQMom=    0.0000000   0.0000000   0.0000000   0.0000000   0.0000000   0.0000000   0.0000000
 NMagM=    0.0000000   2.7928460   2.7928460   0.0000000   2.7928460   2.7928460   2.7928460
 AtZNuc=   6.0000000   1.0000000   1.0000000   6.0000000   1.0000000   1.0000000   1.0000000
 Leave Link  101 at Wed Sep  5 16:41:25 2018, MaxMem=   805306368 cpu:               0.3 elap:               0.0
 (Enter /home/g16/l202.exe)
                          Input orientation:                          
 ---------------------------------------------------------------------
 Center     Atomic      Atomic             Coordinates (Angstroms)
 Number     Number       Type             X           Y           Z
 ---------------------------------------------------------------------
      1          6           0        0.011108    0.795390    0.000000
      2          1           0       -0.070714    1.353308   -0.927518
      3          1           0       -0.070714    1.353308    0.927518
      4          6           0        0.011108   -0.694158    0.000000
      5          1           0        0.510436   -1.101830    0.887654
      6          1           0       -1.012742   -1.110350    0.000000
      7          1           0        0.510436   -1.101830   -0.887654
 ---------------------------------------------------------------------
                    Distance matrix (angstroms):
                    1          2          3          4          5
     1  C    0.000000
     2  H    1.085475   0.000000
     3  H    1.085475   1.855036   0.000000
     4  C    1.489548   2.249245   2.249245   0.000000
     5  H    2.153300   3.108100   2.523297   1.097021   0.000000
     6  H    2.163357   2.795947   2.795947   1.105208   1.762973
     7  H    2.153300   2.523297   3.108100   1.097021   1.775308
                    6          7
     6  H    0.000000
     7  H    1.762973   0.000000
 Stoichiometry    C2H5(2)
 Framework group  CS[SG(C2H),X(H4)]
 Deg. of freedom     9
 Full point group                 CS      NOp   2
 Largest Abelian subgroup         CS      NOp   2
 Largest concise Abelian subgroup CS      NOp   2
                         Standard orientation:                         
 ---------------------------------------------------------------------
 Center     Atomic      Atomic             Coordinates (Angstroms)
 Number     Number       Type             X           Y           Z
 ---------------------------------------------------------------------
      1          6           0       -0.011108    0.795390   -0.000000
      2          1           0        0.070714    1.353308    0.927518
      3          1           0        0.070714    1.353308   -0.927518
      4          6           0       -0.011108   -0.694158    0.000000
      5          1           0       -0.510436   -1.101830   -0.887654
      6          1           0        1.012742   -1.110350    0.000000
      7          1           0       -0.510436   -1.101830    0.887654
 ---------------------------------------------------------------------
 Rotational constants (GHZ):         103.3120048          22.6486098          20.9991852
 Leave Link  202 at Wed Sep  5 16:41:25 2018, MaxMem=   805306368 cpu:               0.0 elap:               0.0
 (Enter /home/g16/l301.exe)
 Standard basis: 6-311+G(2d,p) (5D, 7F)
 Ernie: Thresh=  0.10000D-02 Tol=  0.10000D-05 Strict=F.
 There are    59 symmetry adapted cartesian basis functions of A'  symmetry.
 There are    29 symmetry adapted cartesian basis functions of A"  symmetry.
 There are    55 symmetry adapted basis functions of A'  symmetry.
 There are    29 symmetry adapted basis functions of A"  symmetry.
    84 basis functions,   124 primitive gaussians,    88 cartesian basis functions
     9 alpha electrons        8 beta electrons
       nuclear repulsion energy        36.8628439923 Hartrees.
 IExCor=  402 DFT=T Ex+Corr=B3LYP ExCW=0 ScaHFX=  0.200000
 ScaDFX=  0.800000  0.720000  1.000000  0.810000 ScalE2=  1.000000  1.000000
 IRadAn=      4 IRanWt=     -1 IRanGd=            0 ICorTp=0 IEmpDi=  4
 NAtoms=    7 NActive=    7 NUniq=    5 SFac= 1.96D+00 NAtFMM=   60 NAOKFM=F Big=F
 Integral buffers will be    131072 words long.
 Raffenetti 2 integral format.
 Two-electron integral symmetry is turned on.
 Leave Link  301 at Wed Sep  5 16:41:25 2018, MaxMem=   805306368 cpu:               0.1 elap:               0.0
 (Enter /home/g16/l302.exe)
 NPDir=0 NMtPBC=     1 NCelOv=     1 NCel=       1 NClECP=     1 NCelD=      1
         NCelK=      1 NCelE2=     1 NClLst=     1 CellRange=     0.0.
 One-electron integrals computed using PRISM.
 One-electron integral symmetry used in STVInt
 NBasis=    84 RedAO= T EigKep=  2.02D-04  NBF=    55    29
 NBsUse=    84 1.00D-06 EigRej= -1.00D+00 NBFU=    55    29
 Precomputing XC quadrature grid using
 IXCGrd= 4 IRadAn=           4 IRanWt=          -1 IRanGd=           0 AccXCQ= 1.00D-10.
 Generated NRdTot=       0 NPtTot=           0 NUsed=           0 NTot=          32
 NSgBfM=    88    88    88    88    88 MxSgAt=     7 MxSgA2=     7.
 Leave Link  302 at Wed Sep  5 16:41:25 2018, MaxMem=   805306368 cpu:               0.5 elap:               0.1
 (Enter /home/g16/l303.exe)
 DipDrv:  MaxL=1.
 Leave Link  303 at Wed Sep  5 16:41:25 2018, MaxMem=   805306368 cpu:               0.1 elap:               0.0
 (Enter /home/g16/l401.exe)
 ExpMin= 4.38D-02 ExpMax= 4.56D+03 ExpMxC= 6.82D+02 IAcc=2 IRadAn=         4 AccDes= 0.00D+00
 Harris functional with IExCor=  402 and IRadAn=      -1 diagonalized for initial guess.
 HarFok:  IExCor=  402 AccDes= 0.00D+00 IRadAn=        -1 IDoV= 1 UseB2=F ITyADJ=14
 ICtDFT=  3500011 ScaDFX=  1.000000  1.000000  1.000000  1.000000
 FoFCou: FMM=F IPFlag=           0 FMFlag=      100000 FMFlg1=           0
         NFxFlg=           0 DoJE=T BraDBF=F KetDBF=T FulRan=T
         wScrn=  0.000000 ICntrl=       500 IOpCl=  0 I1Cent=   200000004 NGrid=           0
         NMat0=    1 NMatS0=      1 NMatT0=    0 NMatD0=    1 NMtDS0=    0 NMtDT0=    0
 Petite list used in FoFCou.
 Harris En= -79.2022434365612    
 JPrj=0 DoOrth=F DoCkMO=F.
 Initial guess orbital symmetries:
 Alpha Orbitals:
       Occupied  (A') (A') (A') (A') (A") (A') (A') (A") (A')
       Virtual   (A') (A') (A") (A') (A') (A") (A') (A") (A') (A')
                 (A') (A") (A') (A') (A") (A') (A') (A") (A') (A')
                 (A") (A') (A') (A") (A') (A') (A") (A') (A') (A")
                 (A') (A") (A') (A") (A') (A') (A') (A") (A") (A')
                 (A") (A') (A') (A") (A') (A') (A") (A") (A') (A')
                 (A') (A") (A") (A') (A") (A') (A') (A') (A') (A')
                 (A") (A") (A') (A") (A') (A") (A') (A') (A') (A")
                 (A') (A") (A') (A') (A')
 Beta  Orbitals:
       Occupied  (A') (A') (A') (A') (A") (A') (A') (A")
       Virtual   (A') (A') (A') (A") (A') (A') (A") (A') (A") (A')
                 (A') (A') (A") (A') (A') (A") (A') (A') (A") (A')
                 (A') (A") (A') (A') (A") (A') (A') (A") (A') (A')
                 (A") (A') (A") (A') (A") (A') (A') (A') (A") (A")
                 (A') (A") (A') (A') (A") (A') (A') (A") (A") (A')
                 (A') (A') (A") (A") (A') (A") (A') (A') (A') (A')
                 (A') (A") (A") (A') (A") (A') (A") (A') (A') (A')
                 (A") (A') (A") (A') (A') (A')
 The electronic state of the initial guess is 2-A'.
 Initial guess <Sx>= 0.0000 <Sy>= 0.0000 <Sz>= 0.5000 <S**2>= 0.7500 S= 0.5000
 Leave Link  401 at Wed Sep  5 16:41:25 2018, MaxMem=   805306368 cpu:               0.7 elap:               0.1
 (Enter /home/g16/l502.exe)
 Keep R1 and R2 ints in memory in symmetry-blocked form, NReq=13739811.
 FoFCou: FMM=F IPFlag=           0 FMFlag=           0 FMFlg1=           0
         NFxFlg=           0 DoJE=F BraDBF=F KetDBF=F FulRan=T
         wScrn=  0.000000 ICntrl=       600 IOpCl=  0 I1Cent=           0 NGrid=           0
         NMat0=    1 NMatS0=   3570 NMatT0=    0 NMatD0=    1 NMtDS0=    0 NMtDT0=    0
 Petite list used in FoFCou.
 UHF open shell SCF:
 Using DIIS extrapolation, IDIIS=  1040.
 NGot=   805306368 LenX=   798832623 LenY=   798824438
 Requested convergence on RMS density matrix=1.00D-08 within 128 cycles.
 Requested convergence on MAX density matrix=1.00D-06.
 Requested convergence on             energy=1.00D-06.
 No special actions if energy rises.

 Cycle   1  Pass 1  IDiag  1:
 E= -79.0863882433771    
 DIIS: error= 5.13D-02 at cycle   1 NSaved=   1.
 NSaved= 1 IEnMin= 1 EnMin= -79.0863882433771     IErMin= 1 ErrMin= 5.13D-02
 ErrMax= 5.13D-02  0.00D+00 EMaxC= 1.00D-01 BMatC= 3.90D-01 BMatP= 3.90D-01
 IDIUse=3 WtCom= 4.87D-01 WtEn= 5.13D-01
 Coeff-Com:  0.100D+01
 Coeff-En:   0.100D+01
 Coeff:      0.100D+01
 Gap=     0.144 Goal=   None    Shift=    0.000
 Gap=     0.317 Goal=   None    Shift=    0.000
 GapD=    0.144 DampG=1.000 DampE=0.500 DampFc=0.5000 IDamp=-1.
 Damping current iteration by 5.00D-01
 RMSDP=5.51D-03 MaxDP=1.25D-01              OVMax= 1.95D-01

 Cycle   2  Pass 1  IDiag  1:
 E= -79.1293654337149     Delta-E=       -0.042977190338 Rises=F Damp=T
 DIIS: error= 8.18D-03 at cycle   2 NSaved=   2.
 NSaved= 2 IEnMin= 2 EnMin= -79.1293654337149     IErMin= 2 ErrMin= 8.18D-03
 ErrMax= 8.18D-03  0.00D+00 EMaxC= 1.00D-01 BMatC= 1.64D-02 BMatP= 3.90D-01
 IDIUse=3 WtCom= 9.18D-01 WtEn= 8.18D-02
 Coeff-Com:  0.672D-01 0.933D+00
 Coeff-En:   0.151D+00 0.849D+00
 Coeff:      0.741D-01 0.926D+00
 Gap=     0.216 Goal=   None    Shift=    0.000
 Gap=     0.303 Goal=   None    Shift=    0.000
 RMSDP=1.06D-03 MaxDP=2.39D-02 DE=-4.30D-02 OVMax= 1.27D-01

 Cycle   3  Pass 1  IDiag  1:
 E= -79.1862770665981     Delta-E=       -0.056911632883 Rises=F Damp=F
 DIIS: error= 3.92D-03 at cycle   3 NSaved=   3.
 NSaved= 3 IEnMin= 3 EnMin= -79.1862770665981     IErMin= 3 ErrMin= 3.92D-03
 ErrMax= 3.92D-03  0.00D+00 EMaxC= 1.00D-01 BMatC= 1.78D-03 BMatP= 1.64D-02
 IDIUse=3 WtCom= 9.61D-01 WtEn= 3.92D-02
 Coeff-Com: -0.278D-01 0.167D+00 0.861D+00
 Coeff-En:   0.000D+00 0.000D+00 0.100D+01
 Coeff:     -0.267D-01 0.161D+00 0.866D+00
 Gap=     0.219 Goal=   None    Shift=    0.000
 Gap=     0.296 Goal=   None    Shift=    0.000
 RMSDP=1.97D-04 MaxDP=3.70D-03 DE=-5.69D-02 OVMax= 9.35D-03

 Cycle   4  Pass 1  IDiag  1:
 E= -79.1867574153738     Delta-E=       -0.000480348776 Rises=F Damp=F
 DIIS: error= 7.50D-04 at cycle   4 NSaved=   4.
 NSaved= 4 IEnMin= 4 EnMin= -79.1867574153738     IErMin= 4 ErrMin= 7.50D-04
 ErrMax= 7.50D-04  0.00D+00 EMaxC= 1.00D-01 BMatC= 9.42D-05 BMatP= 1.78D-03
 IDIUse=3 WtCom= 9.92D-01 WtEn= 7.50D-03
 Coeff-Com: -0.826D-02-0.763D-03 0.192D+00 0.817D+00
 Coeff-En:   0.000D+00 0.000D+00 0.000D+00 0.100D+01
 Coeff:     -0.820D-02-0.758D-03 0.191D+00 0.818D+00
 Gap=     0.220 Goal=   None    Shift=    0.000
 Gap=     0.296 Goal=   None    Shift=    0.000
 RMSDP=5.88D-05 MaxDP=1.40D-03 DE=-4.80D-04 OVMax= 2.84D-03

 Cycle   5  Pass 1  IDiag  1:
 E= -79.1867847474941     Delta-E=       -0.000027332120 Rises=F Damp=F
 DIIS: error= 3.33D-04 at cycle   5 NSaved=   5.
 NSaved= 5 IEnMin= 5 EnMin= -79.1867847474941     IErMin= 5 ErrMin= 3.33D-04
 ErrMax= 3.33D-04  0.00D+00 EMaxC= 1.00D-01 BMatC= 1.15D-05 BMatP= 9.42D-05
 IDIUse=3 WtCom= 9.97D-01 WtEn= 3.33D-03
 Coeff-Com: -0.844D-03-0.828D-02 0.145D-01 0.218D+00 0.777D+00
 Coeff-En:   0.000D+00 0.000D+00 0.000D+00 0.000D+00 0.100D+01
 Coeff:     -0.842D-03-0.825D-02 0.144D-01 0.217D+00 0.777D+00
 Gap=     0.220 Goal=   None    Shift=    0.000
 Gap=     0.297 Goal=   None    Shift=    0.000
 RMSDP=2.08D-05 MaxDP=8.66D-04 DE=-2.73D-05 OVMax= 1.12D-03

 Cycle   6  Pass 1  IDiag  1:
 E= -79.1867881098193     Delta-E=       -0.000003362325 Rises=F Damp=F
 DIIS: error= 1.90D-04 at cycle   6 NSaved=   6.
 NSaved= 6 IEnMin= 6 EnMin= -79.1867881098193     IErMin= 6 ErrMin= 1.90D-04
 ErrMax= 1.90D-04  0.00D+00 EMaxC= 1.00D-01 BMatC= 3.75D-06 BMatP= 1.15D-05
 IDIUse=3 WtCom= 9.98D-01 WtEn= 1.90D-03
 Coeff-Com:  0.191D-02-0.315D-02-0.470D-01-0.138D+00 0.361D+00 0.825D+00
 Coeff-En:   0.000D+00 0.000D+00 0.000D+00 0.000D+00 0.000D+00 0.100D+01
 Coeff:      0.190D-02-0.315D-02-0.470D-01-0.137D+00 0.361D+00 0.825D+00
 Gap=     0.220 Goal=   None    Shift=    0.000
 Gap=     0.297 Goal=   None    Shift=    0.000
 RMSDP=1.32D-05 MaxDP=4.36D-04 DE=-3.36D-06 OVMax= 7.14D-04

 Cycle   7  Pass 1  IDiag  1:
 E= -79.1867894362528     Delta-E=       -0.000001326434 Rises=F Damp=F
 DIIS: error= 2.05D-05 at cycle   7 NSaved=   7.
 NSaved= 7 IEnMin= 7 EnMin= -79.1867894362528     IErMin= 7 ErrMin= 2.05D-05
 ErrMax= 2.05D-05  0.00D+00 EMaxC= 1.00D-01 BMatC= 4.81D-08 BMatP= 3.75D-06
 IDIUse=1 WtCom= 1.00D+00 WtEn= 0.00D+00
 Coeff-Com: -0.133D-03 0.790D-03 0.999D-03-0.521D-02-0.621D-01-0.405D-01
 Coeff-Com:  0.111D+01
 Coeff:     -0.133D-03 0.790D-03 0.999D-03-0.521D-02-0.621D-01-0.405D-01
 Coeff:      0.111D+01
 Gap=     0.220 Goal=   None    Shift=    0.000
 Gap=     0.297 Goal=   None    Shift=    0.000
 RMSDP=2.32D-06 MaxDP=6.53D-05 DE=-1.33D-06 OVMax= 1.02D-04

 Cycle   8  Pass 1  IDiag  1:
 E= -79.1867894655798     Delta-E=       -0.000000029327 Rises=F Damp=F
 DIIS: error= 4.64D-06 at cycle   8 NSaved=   8.
 NSaved= 8 IEnMin= 8 EnMin= -79.1867894655798     IErMin= 8 ErrMin= 4.64D-06
 ErrMax= 4.64D-06  0.00D+00 EMaxC= 1.00D-01 BMatC= 2.76D-09 BMatP= 4.81D-08
 IDIUse=1 WtCom= 1.00D+00 WtEn= 0.00D+00
 Coeff-Com: -0.960D-04 0.261D-03 0.223D-02 0.561D-02-0.253D-01-0.388D-01
 Coeff-Com:  0.150D+00 0.907D+00
 Coeff:     -0.960D-04 0.261D-03 0.223D-02 0.561D-02-0.253D-01-0.388D-01
 Coeff:      0.150D+00 0.907D+00
 Gap=     0.220 Goal=   None    Shift=    0.000
 Gap=     0.297 Goal=   None    Shift=    0.000
 RMSDP=7.53D-07 MaxDP=2.00D-05 DE=-2.93D-08 OVMax= 2.16D-05

 Cycle   9  Pass 1  IDiag  1:
 E= -79.1867894668575     Delta-E=       -0.000000001278 Rises=F Damp=F
 DIIS: error= 1.27D-06 at cycle   9 NSaved=   9.
 NSaved= 9 IEnMin= 9 EnMin= -79.1867894668575     IErMin= 9 ErrMin= 1.27D-06
 ErrMax= 1.27D-06  0.00D+00 EMaxC= 1.00D-01 BMatC= 2.69D-10 BMatP= 2.76D-09
 IDIUse=1 WtCom= 1.00D+00 WtEn= 0.00D+00
 Coeff-Com:  0.287D-05-0.243D-04 0.224D-03 0.103D-02 0.795D-03-0.368D-02
 Coeff-Com: -0.523D-01 0.136D+00 0.918D+00
 Coeff:      0.287D-05-0.243D-04 0.224D-03 0.103D-02 0.795D-03-0.368D-02
 Coeff:     -0.523D-01 0.136D+00 0.918D+00
 Gap=     0.220 Goal=   None    Shift=    0.000
 Gap=     0.297 Goal=   None    Shift=    0.000
 RMSDP=1.98D-07 MaxDP=6.01D-06 DE=-1.28D-09 OVMax= 7.46D-06

 Cycle  10  Pass 1  IDiag  1:
 E= -79.1867894669792     Delta-E=       -0.000000000122 Rises=F Damp=F
 DIIS: error= 3.51D-07 at cycle  10 NSaved=  10.
 NSaved=10 IEnMin=10 EnMin= -79.1867894669792     IErMin=10 ErrMin= 3.51D-07
 ErrMax= 3.51D-07  0.00D+00 EMaxC= 1.00D-01 BMatC= 2.54D-11 BMatP= 2.69D-10
 IDIUse=1 WtCom= 1.00D+00 WtEn= 0.00D+00
 Coeff-Com:  0.865D-05-0.245D-04-0.130D-03-0.246D-03 0.209D-02 0.198D-02
 Coeff-Com: -0.192D-01-0.482D-01 0.168D+00 0.896D+00
 Coeff:      0.865D-05-0.245D-04-0.130D-03-0.246D-03 0.209D-02 0.198D-02
 Coeff:     -0.192D-01-0.482D-01 0.168D+00 0.896D+00
 Gap=     0.220 Goal=   None    Shift=    0.000
 Gap=     0.297 Goal=   None    Shift=    0.000
 RMSDP=6.99D-08 MaxDP=2.04D-06 DE=-1.22D-10 OVMax= 1.69D-06

 Cycle  11  Pass 1  IDiag  1:
 E= -79.1867894669910     Delta-E=       -0.000000000012 Rises=F Damp=F
 DIIS: error= 1.04D-07 at cycle  11 NSaved=  11.
 NSaved=11 IEnMin=11 EnMin= -79.1867894669910     IErMin=11 ErrMin= 1.04D-07
 ErrMax= 1.04D-07  0.00D+00 EMaxC= 1.00D-01 BMatC= 1.66D-12 BMatP= 2.54D-11
 IDIUse=1 WtCom= 1.00D+00 WtEn= 0.00D+00
 Coeff-Com: -0.949D-06 0.326D-05-0.147D-04-0.664D-04-0.164D-03 0.319D-03
 Coeff-Com:  0.516D-02-0.128D-01-0.889D-01-0.112D-02 0.110D+01
 Coeff:     -0.949D-06 0.326D-05-0.147D-04-0.664D-04-0.164D-03 0.319D-03
 Coeff:      0.516D-02-0.128D-01-0.889D-01-0.112D-02 0.110D+01
 Gap=     0.220 Goal=   None    Shift=    0.000
 Gap=     0.297 Goal=   None    Shift=    0.000
 RMSDP=1.44D-08 MaxDP=2.63D-07 DE=-1.18D-11 OVMax= 5.27D-07

 Cycle  12  Pass 1  IDiag  1:
 E= -79.1867894669920     Delta-E=       -0.000000000001 Rises=F Damp=F
 DIIS: error= 2.67D-08 at cycle  12 NSaved=  12.
 NSaved=12 IEnMin=12 EnMin= -79.1867894669920     IErMin=12 ErrMin= 2.67D-08
 ErrMax= 2.67D-08  0.00D+00 EMaxC= 1.00D-01 BMatC= 5.30D-14 BMatP= 1.66D-12
 IDIUse=1 WtCom= 1.00D+00 WtEn= 0.00D+00
 Coeff-Com: -0.258D-06 0.478D-06 0.283D-05 0.438D-05-0.458D-04-0.505D-04
 Coeff-Com:  0.250D-03 0.322D-02 0.177D-03-0.397D-01-0.977D-01 0.113D+01
 Coeff:     -0.258D-06 0.478D-06 0.283D-05 0.438D-05-0.458D-04-0.505D-04
 Coeff:      0.250D-03 0.322D-02 0.177D-03-0.397D-01-0.977D-01 0.113D+01
 Gap=     0.220 Goal=   None    Shift=    0.000
 Gap=     0.297 Goal=   None    Shift=    0.000
 RMSDP=2.96D-09 MaxDP=5.21D-08 DE=-9.38D-13 OVMax= 1.00D-07

 SCF Done:  E(UB3LYP) =  -79.1867894670     A.U. after   12 cycles
            NFock= 12  Conv=0.30D-08     -V/T= 2.0056
 <Sx>= 0.0000 <Sy>= 0.0000 <Sz>= 0.5000 <S**2>= 0.7539 S= 0.5020
 <L.S>=  0.00000000000    
 KE= 7.874797287080D+01 PE=-2.566368625953D+02 EE= 6.183925626522D+01
 Annihilation of the first spin contaminant:
 S**2 before annihilation     0.7539,   after     0.7500
 Leave Link  502 at Wed Sep  5 16:41:26 2018, MaxMem=   805306368 cpu:               5.6 elap:               0.7
 (Enter /home/g16/l601.exe)
 Copying SCF densities to generalized density rwf, IOpCl= 1 IROHF=0.

 **********************************************************************

            Population analysis using the SCF density.

 **********************************************************************

 Orbital symmetries:
 Alpha Orbitals:
       Occupied  (A') (A') (A') (A') (A") (A') (A') (A") (A')
       Virtual   (A') (A') (A") (A') (A') (A") (A') (A') (A') (A")
                 (A') (A") (A') (A') (A") (A') (A') (A") (A') (A')
                 (A') (A") (A') (A") (A') (A") (A') (A') (A') (A")
                 (A') (A") (A') (A") (A') (A') (A') (A") (A") (A')
                 (A") (A') (A') (A") (A') (A') (A") (A") (A') (A')
                 (A') (A") (A") (A') (A") (A') (A') (A') (A') (A')
                 (A") (A") (A') (A") (A') (A') (A") (A') (A') (A")
                 (A') (A") (A') (A') (A')
 Beta  Orbitals:
       Occupied  (A') (A') (A') (A') (A") (A') (A') (A")
       Virtual   (A') (A') (A') (A") (A') (A') (A") (A') (A') (A")
                 (A') (A') (A") (A') (A') (A") (A') (A') (A") (A')
                 (A') (A") (A') (A') (A") (A') (A') (A") (A') (A')
                 (A") (A') (A") (A") (A') (A') (A') (A') (A") (A")
                 (A') (A") (A') (A') (A") (A') (A') (A") (A") (A')
                 (A') (A') (A") (A") (A') (A") (A') (A') (A') (A')
                 (A') (A") (A') (A") (A") (A') (A") (A') (A') (A')
                 (A") (A') (A") (A') (A') (A')
 The electronic state is 2-A'.
 Alpha  occ. eigenvalues --  -10.17801 -10.16904  -0.75979  -0.61221  -0.45455
 Alpha  occ. eigenvalues --   -0.41766  -0.39741  -0.36183  -0.20779
 Alpha virt. eigenvalues --    0.01251   0.02924   0.04669   0.05472   0.08101
 Alpha virt. eigenvalues --    0.08222   0.09465   0.13484   0.14275   0.14587
 Alpha virt. eigenvalues --    0.18679   0.21411   0.22908   0.25418   0.39063
 Alpha virt. eigenvalues --    0.41819   0.42737   0.46796   0.48491   0.53324
 Alpha virt. eigenvalues --    0.55450   0.56436   0.57417   0.62520   0.64418
 Alpha virt. eigenvalues --    0.64796   0.65139   0.72307   0.84324   0.87243
 Alpha virt. eigenvalues --    0.91470   1.06858   1.07076   1.08913   1.16406
 Alpha virt. eigenvalues --    1.23043   1.28419   1.45627   1.65873   1.69621
 Alpha virt. eigenvalues --    1.70642   1.74710   1.89775   1.96191   2.09738
 Alpha virt. eigenvalues --    2.14986   2.21584   2.24830   2.26464   2.30379
 Alpha virt. eigenvalues --    2.40858   2.43140   2.63634   2.64578   2.69791
 Alpha virt. eigenvalues --    2.73282   2.78768   2.83130   3.05334   3.12260
 Alpha virt. eigenvalues --    3.16445   3.22480   3.23070   3.30081   3.33176
 Alpha virt. eigenvalues --    3.45539   3.46219   3.52921   3.67177   4.11482
 Alpha virt. eigenvalues --    4.17915   4.22723   4.49574  23.82952  23.98383
  Beta  occ. eigenvalues --  -10.16985 -10.16400  -0.74335  -0.58858  -0.44834
  Beta  occ. eigenvalues --   -0.40270  -0.38944  -0.35739
  Beta virt. eigenvalues --   -0.06043   0.01365   0.03162   0.04683   0.05777
  Beta virt. eigenvalues --    0.08081   0.08210   0.10618   0.14327   0.14659
  Beta virt. eigenvalues --    0.14669   0.19673   0.21753   0.23086   0.26181
  Beta virt. eigenvalues --    0.39182   0.42445   0.43239   0.47225   0.50080
  Beta virt. eigenvalues --    0.54832   0.56558   0.58446   0.60024   0.63496
  Beta virt. eigenvalues --    0.65540   0.66108   0.67498   0.73468   0.85641
  Beta virt. eigenvalues --    0.87679   0.92632   1.07240   1.09257   1.09280
  Beta virt. eigenvalues --    1.17949   1.23726   1.29130   1.46161   1.66188
  Beta virt. eigenvalues --    1.70665   1.70964   1.75537   1.90195   1.96714
  Beta virt. eigenvalues --    2.10605   2.15323   2.21862   2.25430   2.27329
  Beta virt. eigenvalues --    2.31031   2.41737   2.43388   2.64002   2.65377
  Beta virt. eigenvalues --    2.69933   2.73714   2.81237   2.87526   3.07769
  Beta virt. eigenvalues --    3.13680   3.18053   3.24720   3.25033   3.34147
  Beta virt. eigenvalues --    3.34418   3.46234   3.48880   3.54081   3.72823
  Beta virt. eigenvalues --    4.13033   4.18176   4.22672   4.50628  23.84388
  Beta virt. eigenvalues --   23.98496
     Alpha Molecular Orbital Coefficients:
                           1         2         3         4         5
                           O         O         O         O         O
     Eigenvalues --   -10.17801 -10.16904  -0.75979  -0.61221  -0.45455
   1 1   C  1S          0.56257  -0.00922  -0.07907  -0.07979   0.00000
   2        2S          0.46335  -0.00768  -0.12320  -0.12519   0.00000
   3        2PX        -0.00002  -0.00002   0.00224   0.00542   0.00000
   4        2PY        -0.00025  -0.00057  -0.03481   0.06128   0.00000
   5        2PZ         0.00000   0.00000   0.00000   0.00000   0.16269
   6        3S          0.01938   0.00082   0.32741   0.34061   0.00000
   7        3PX         0.00046   0.00010   0.00214   0.00602   0.00000
   8        3PY         0.00133   0.00130  -0.05827   0.08141   0.00000
   9        3PZ         0.00000   0.00000   0.00000   0.00000   0.22355
  10        4S         -0.00349   0.00227   0.19216   0.22325   0.00000
  11        4PX        -0.00010   0.00005   0.00097   0.00344   0.00000
  12        4PY         0.00201   0.00089  -0.02261   0.04769   0.00000
  13        4PZ         0.00000   0.00000   0.00000   0.00000   0.12790
  14        5S          0.00459   0.00438  -0.04853   0.08614   0.00000
  15        5PX         0.00004   0.00003  -0.00011   0.00054   0.00000
  16        5PY        -0.00297  -0.00146   0.02007  -0.01620   0.00000
  17        5PZ         0.00000   0.00000   0.00000   0.00000   0.01076
  18        6D 0        0.00019  -0.00003  -0.00256   0.00469   0.00000
  19        6D+1        0.00000   0.00000   0.00000   0.00000   0.00128
  20        6D-1        0.00000   0.00000   0.00000   0.00000   0.00521
  21        6D+2       -0.00020  -0.00004  -0.00481   0.00168   0.00000
  22        6D-2        0.00002  -0.00000   0.00002   0.00035   0.00000
  23        7D 0        0.00274   0.00202  -0.00779  -0.00180   0.00000
  24        7D+1        0.00000   0.00000   0.00000   0.00000  -0.00127
  25        7D-1        0.00000   0.00000   0.00000   0.00000  -0.01343
  26        7D+2       -0.00049   0.00120  -0.00256   0.00889   0.00000
  27        7D-2        0.00029   0.00004  -0.00056  -0.00042   0.00000
  28 2   H  1S          0.00022  -0.00010   0.04923   0.09060   0.10594
  29        2S         -0.00583  -0.00163   0.05908   0.11664   0.15552
  30        3S          0.00280   0.00010  -0.00231   0.00647   0.04121
  31        4PX         0.00023   0.00005  -0.00063  -0.00087  -0.00107
  32        4PY         0.00153   0.00056  -0.00660  -0.00685  -0.01028
  33        4PZ         0.00209   0.00013  -0.00857  -0.01460  -0.00984
  34 3   H  1S          0.00022  -0.00010   0.04923   0.09060  -0.10594
  35        2S         -0.00583  -0.00163   0.05908   0.11664  -0.15552
  36        3S          0.00280   0.00010  -0.00231   0.00647  -0.04121
  37        4PX         0.00023   0.00005  -0.00063  -0.00087   0.00107
  38        4PY         0.00153   0.00056  -0.00660  -0.00685   0.01028
  39        4PZ        -0.00209  -0.00013   0.00857   0.01460  -0.00984
  40 4   C  1S          0.00921   0.56291  -0.08818   0.06278   0.00000
  41        2S          0.00750   0.46309  -0.13634   0.09779   0.00000
  42        2PX        -0.00014  -0.00003   0.00073   0.00002   0.00000
  43        2PY         0.00060   0.00023   0.02669   0.06834   0.00000
  44        2PZ         0.00000   0.00000   0.00000   0.00000   0.13604
  45        3S          0.00152   0.01960   0.35621  -0.26067   0.00000
  46        3PX         0.00072   0.00021   0.00040  -0.00123   0.00000
  47        3PY        -0.00123  -0.00110   0.04626   0.09293   0.00000
  48        3PZ         0.00000   0.00000   0.00000   0.00000   0.18822
  49        4S          0.00107  -0.00673   0.18343  -0.16779   0.00000
  50        4PX         0.00085   0.00037   0.00016  -0.00140   0.00000
  51        4PY        -0.00173  -0.00134   0.00670   0.05674   0.00000
  52        4PZ         0.00000   0.00000   0.00000   0.00000   0.11289
  53        5S         -0.00598  -0.00774   0.06836  -0.08792   0.00000
  54        5PX        -0.00047  -0.00012   0.00147   0.00109   0.00000
  55        5PY        -0.00099  -0.00047   0.01046  -0.01957   0.00000
  56        5PZ         0.00000   0.00000   0.00000   0.00000   0.00725
  57        6D 0        0.00005   0.00010  -0.00233  -0.00313   0.00000
  58        6D+1        0.00000   0.00000   0.00000   0.00000  -0.00659
  59        6D-1        0.00000   0.00000   0.00000   0.00000  -0.00052
  60        6D+2       -0.00012   0.00001  -0.00413  -0.00510   0.00000
  61        6D-2       -0.00002   0.00000   0.00003   0.00025   0.00000
  62        7D 0       -0.00013   0.00008  -0.00178  -0.00112   0.00000
  63        7D+1        0.00000   0.00000   0.00000   0.00000  -0.00099
  64        7D-1        0.00000   0.00000   0.00000   0.00000   0.00588
  65        7D+2        0.00265   0.00125  -0.00709  -0.00762   0.00000
  66        7D-2       -0.00036  -0.00021   0.00074   0.00085   0.00000
  67 5   H  1S         -0.00003   0.00026   0.05854  -0.07101  -0.08855
  68        2S         -0.00024  -0.00334   0.07046  -0.09164  -0.12627
  69        3S         -0.00024   0.00342  -0.00500  -0.00386  -0.03793
  70        4PX         0.00011  -0.00088   0.00529  -0.00655  -0.00771
  71        4PY         0.00001  -0.00063   0.00547  -0.00179  -0.00702
  72        4PZ        -0.00021  -0.00172   0.00977  -0.01095  -0.00557
  73 6   H  1S         -0.00019   0.00019   0.05941  -0.07231   0.00000
  74        2S         -0.00266  -0.00415   0.07472  -0.09025   0.00000
  75        3S          0.00084   0.00350  -0.00838  -0.00862   0.00000
  76        4PX         0.00053   0.00205  -0.01166   0.01238   0.00000
  77        4PY        -0.00026  -0.00072   0.00540  -0.00130   0.00000
  78        4PZ         0.00000   0.00000   0.00000   0.00000   0.00796
  79 7   H  1S         -0.00003   0.00026   0.05854  -0.07101   0.08855
  80        2S         -0.00024  -0.00334   0.07046  -0.09164   0.12627
  81        3S         -0.00024   0.00342  -0.00500  -0.00386   0.03793
  82        4PX         0.00011  -0.00088   0.00529  -0.00655   0.00771
  83        4PY         0.00001  -0.00063   0.00547  -0.00179   0.00702
  84        4PZ         0.00021   0.00172  -0.00977   0.01095  -0.00557
                           6         7         8         9        10
                           O         O         O         O         V
     Eigenvalues --    -0.41766  -0.39741  -0.36183  -0.20779   0.01251
   1 1   C  1S          0.00258   0.00904   0.00000   0.00557   0.01844
   2        2S          0.00428   0.01493   0.00000   0.00913   0.03029
   3        2PX         0.07903  -0.00358   0.00000   0.26187  -0.00222
   4        2PY         0.02725   0.19292   0.00000  -0.01269  -0.04202
   5        2PZ         0.00000   0.00000  -0.13642   0.00000   0.00000
   6        3S         -0.01299  -0.04817   0.00000  -0.02775  -0.08381
   7        3PX         0.12478  -0.00750   0.00000   0.40097  -0.00620
   8        3PY         0.03723   0.27831   0.00000  -0.01946  -0.06291
   9        3PZ         0.00000   0.00000  -0.18357   0.00000   0.00000
  10        4S         -0.01409  -0.01317   0.00000  -0.04740  -0.44113
  11        4PX         0.08523  -0.00519   0.00000   0.44493  -0.00368
  12        4PY         0.02229   0.17038   0.00000  -0.02562  -0.07948
  13        4PZ         0.00000   0.00000  -0.13662   0.00000   0.00000
  14        5S          0.01946  -0.02907   0.00000  -0.03961  -0.80047
  15        5PX        -0.00075   0.00069   0.00000   0.12953   0.02428
  16        5PY        -0.00276   0.01761   0.00000   0.00140   0.63096
  17        5PZ         0.00000   0.00000  -0.02157   0.00000   0.00000
  18        6D 0        0.00160   0.01076   0.00000   0.00094   0.00068
  19        6D+1        0.00000   0.00000  -0.00166   0.00000   0.00000
  20        6D-1        0.00000   0.00000  -0.01484   0.00000   0.00000
  21        6D+2        0.00092   0.00652   0.00000  -0.00117   0.00354
  22        6D-2       -0.00639   0.00162   0.00000   0.00181   0.00014
  23        7D 0       -0.00305   0.00902   0.00000   0.00252  -0.01041
  24        7D+1        0.00000   0.00000  -0.00498   0.00000   0.00000
  25        7D-1        0.00000   0.00000  -0.02326   0.00000   0.00000
  26        7D+2        0.00319   0.00724   0.00000  -0.00206   0.01819
  27        7D-2       -0.01404   0.00355   0.00000   0.01288  -0.00144
  28 2   H  1S          0.01254   0.07390  -0.10953   0.00786  -0.01436
  29        2S          0.02151   0.10279  -0.15469   0.01196   0.06228
  30        3S          0.00296   0.04403  -0.07712   0.01446  -0.17479
  31        4PX         0.00477  -0.00112   0.00132   0.02078   0.00040
  32        4PY        -0.00020   0.00364   0.00941  -0.00167  -0.00252
  33        4PZ        -0.00240  -0.01017   0.00723  -0.00071   0.00584
  34 3   H  1S          0.01254   0.07390   0.10953   0.00786  -0.01436
  35        2S          0.02151   0.10279   0.15469   0.01196   0.06228
  36        3S          0.00296   0.04403   0.07712   0.01446  -0.17479
  37        4PX         0.00477  -0.00112  -0.00132   0.02078   0.00040
  38        4PY        -0.00020   0.00364  -0.00941  -0.00167  -0.00252
  39        4PZ         0.00240   0.01017   0.00723   0.00071  -0.00584
  40 4   C  1S          0.00186   0.00745   0.00000  -0.00202   0.03364
  41        2S          0.00298   0.01215   0.00000  -0.00325   0.05556
  42        2PX         0.19428  -0.03078   0.00000  -0.05566  -0.00271
  43        2PY        -0.02625  -0.18271   0.00000   0.00563   0.04740
  44        2PZ         0.00000   0.00000   0.15676   0.00000   0.00000
  45        3S         -0.00957  -0.04000   0.00000   0.00966  -0.17411
  46        3PX         0.26916  -0.04337   0.00000  -0.06764  -0.01153
  47        3PY        -0.03826  -0.26188   0.00000   0.00843   0.08666
  48        3PZ         0.00000   0.00000   0.21127   0.00000   0.00000
  49        4S          0.00058   0.00120   0.00000   0.00945  -0.38860
  50        4PX         0.16623  -0.02911   0.00000  -0.06763  -0.00960
  51        4PY        -0.02185  -0.16811   0.00000   0.00224   0.14885
  52        4PZ         0.00000   0.00000   0.15482   0.00000   0.00000
  53        5S         -0.01441   0.04979   0.00000   0.03216   3.13629
  54        5PX         0.01735  -0.00233   0.00000  -0.05441   0.05216
  55        5PY        -0.00543   0.00240   0.00000   0.01091   0.12490
  56        5PZ         0.00000   0.00000   0.02443   0.00000   0.00000
  57        6D 0       -0.00828   0.00809   0.00000   0.00551   0.00062
  58        6D+1        0.00000   0.00000  -0.00957   0.00000   0.00000
  59        6D-1        0.00000   0.00000  -0.01133   0.00000   0.00000
  60        6D+2        0.00706   0.01033   0.00000  -0.00342   0.00227
  61        6D-2       -0.00550   0.00102   0.00000   0.01558   0.00008
  62        7D 0       -0.00027   0.00780   0.00000   0.00355   0.00038
  63        7D+1        0.00000   0.00000  -0.00260   0.00000   0.00000
  64        7D-1        0.00000   0.00000  -0.01724   0.00000   0.00000
  65        7D+2        0.00273   0.00849   0.00000  -0.00117  -0.02008
  66        7D-2        0.00108   0.00068   0.00000   0.03459   0.00341
  67 5   H  1S         -0.07036   0.06491  -0.12280   0.04122  -0.00978
  68        2S         -0.10582   0.09097  -0.18351   0.06988   0.07690
  69        3S         -0.03894   0.03676  -0.09239   0.06606  -0.33895
  70        4PX         0.00569   0.00270  -0.00950  -0.00065  -0.00666
  71        4PY        -0.00658  -0.00630  -0.00783   0.00158  -0.00147
  72        4PZ        -0.01083   0.00840  -0.00762   0.00424  -0.00953
  73 6   H  1S          0.16615   0.02767   0.00000  -0.08625  -0.01086
  74        2S          0.24600   0.03911   0.00000  -0.14770   0.10635
  75        3S          0.09454   0.01219   0.00000  -0.15326  -0.40367
  76        4PX        -0.01629  -0.00580   0.00000   0.00690   0.00979
  77        4PY         0.00923  -0.00891   0.00000  -0.00173   0.00000
  78        4PZ         0.00000   0.00000   0.00957   0.00000   0.00000
  79 7   H  1S         -0.07036   0.06491   0.12280   0.04122  -0.00978
  80        2S         -0.10582   0.09097   0.18351   0.06988   0.07690
  81        3S         -0.03894   0.03676   0.09239   0.06606  -0.33895
  82        4PX         0.00569   0.00270   0.00950  -0.00065  -0.00666
  83        4PY        -0.00658  -0.00630   0.00783   0.00158  -0.00147
  84        4PZ         0.01083  -0.00840  -0.00762  -0.00424   0.00953
                          11        12        13        14        15
                           V         V         V         V         V
     Eigenvalues --     0.02924   0.04669   0.05472   0.08101   0.08222
   1 1   C  1S          0.03502   0.00000  -0.00120  -0.01144   0.00000
   2        2S          0.05776   0.00000  -0.00174  -0.01755   0.00000
   3        2PX        -0.00568   0.00000  -0.06008  -0.00279   0.00000
   4        2PY        -0.01597   0.00000   0.00275  -0.03629   0.00000
   5        2PZ         0.00000  -0.07227   0.00000   0.00000   0.05748
   6        3S         -0.18261   0.00000   0.00760   0.02486   0.00000
   7        3PX        -0.01103   0.00000  -0.07099  -0.00212   0.00000
   8        3PY        -0.04653   0.00000  -0.00249  -0.03972   0.00000
   9        3PZ         0.00000  -0.13783   0.00000   0.00000   0.11369
  10        4S         -0.29164   0.00000  -0.01840   0.44337   0.00000
  11        4PX        -0.01855   0.00000  -0.19387  -0.00329   0.00000
  12        4PY        -0.25399   0.00000   0.00730  -0.09007   0.00000
  13        4PZ         0.00000  -0.25461   0.00000   0.00000   0.10427
  14        5S         -4.45210   0.00000   0.55402   2.88652   0.00000
  15        5PX         0.04859   0.00000   0.22109   0.16241   0.00000
  16        5PY         2.18584   0.00000  -0.21639   0.61579   0.00000
  17        5PZ         0.00000   0.78078   0.00000   0.00000  -2.43410
  18        6D 0        0.00001   0.00000   0.00104  -0.00506   0.00000
  19        6D+1        0.00000   0.00055   0.00000   0.00000   0.00152
  20        6D-1        0.00000   0.00356   0.00000   0.00000   0.00223
  21        6D+2       -0.00249   0.00000  -0.00034  -0.00612   0.00000
  22        6D-2        0.00019   0.00000   0.00440   0.00045   0.00000
  23        7D 0       -0.04716   0.00000  -0.01475  -0.02148   0.00000
  24        7D+1        0.00000  -0.01407   0.00000   0.00000   0.00572
  25        7D-1        0.00000  -0.04675   0.00000   0.00000   0.02181
  26        7D+2       -0.03770   0.00000   0.00516  -0.02034   0.00000
  27        7D-2       -0.00181   0.00000   0.01096   0.00039   0.00000
  28 2   H  1S         -0.00413  -0.01166   0.00058  -0.01182   0.01735
  29        2S          0.08962   0.12301   0.02600  -0.01546  -0.07695
  30        3S         -0.05517  -0.20378  -0.02084  -0.15253   0.47789
  31        4PX         0.00001   0.00170   0.00208   0.00052   0.00134
  32        4PY         0.00500   0.00133  -0.00352   0.00908  -0.00774
  33        4PZ         0.00524  -0.00162  -0.00124  -0.00231  -0.00320
  34 3   H  1S         -0.00413   0.01166   0.00058  -0.01182  -0.01735
  35        2S          0.08962  -0.12301   0.02600  -0.01546   0.07695
  36        3S         -0.05517   0.20378  -0.02084  -0.15253  -0.47789
  37        4PX         0.00001  -0.00170   0.00208   0.00052  -0.00134
  38        4PY         0.00500  -0.00133  -0.00352   0.00908   0.00774
  39        4PZ        -0.00524  -0.00162   0.00124   0.00231  -0.00320
  40 4   C  1S         -0.02322   0.00000  -0.00054  -0.01548   0.00000
  41        2S         -0.03792   0.00000  -0.00083  -0.02456   0.00000
  42        2PX         0.00103   0.00000  -0.08112  -0.00500   0.00000
  43        2PY         0.00584   0.00000  -0.00190   0.02136   0.00000
  44        2PZ         0.00000  -0.06914   0.00000   0.00000  -0.04851
  45        3S          0.12235   0.00000   0.00028   0.05239   0.00000
  46        3PX        -0.00522   0.00000  -0.14193  -0.00282   0.00000
  47        3PY        -0.01495   0.00000  -0.00601   0.00713   0.00000
  48        3PZ         0.00000  -0.12997   0.00000   0.00000  -0.08956
  49        4S          0.02977   0.00000   0.02350   0.39399   0.00000
  50        4PX        -0.00326   0.00000  -0.32577  -0.06087   0.00000
  51        4PY        -0.15434   0.00000   0.00605   0.02757   0.00000
  52        4PZ         0.00000  -0.29630   0.00000   0.00000  -0.07041
  53        5S          4.82399   0.00000  -0.63991  -2.77682   0.00000
  54        5PX         0.00655   0.00000   1.13550  -0.16082   0.00000
  55        5PY         2.09258   0.00000  -0.14864  -2.16582   0.00000
  56        5PZ         0.00000   0.65840   0.00000   0.00000   2.46190
  57        6D 0        0.00160   0.00000   0.00134  -0.00544   0.00000
  58        6D+1        0.00000   0.00079   0.00000   0.00000   0.00422
  59        6D-1        0.00000  -0.00239   0.00000   0.00000   0.00274
  60        6D+2        0.00362   0.00000  -0.00035  -0.00764   0.00000
  61        6D-2       -0.00014   0.00000  -0.00208  -0.00041   0.00000
  62        7D 0        0.03594   0.00000   0.04122  -0.01390   0.00000
  63        7D+1        0.00000   0.04120   0.00000   0.00000   0.02185
  64        7D-1        0.00000   0.00295   0.00000   0.00000   0.01479
  65        7D+2        0.03711   0.00000  -0.02407  -0.02043   0.00000
  66        7D-2        0.00309   0.00000   0.02187   0.00226   0.00000
  67 5   H  1S          0.00433   0.01300   0.01104  -0.01494   0.02732
  68        2S         -0.02894  -0.10853  -0.07519  -0.06356  -0.03856
  69        3S          0.01766   0.15575   0.15251   0.01291   0.50965
  70        4PX        -0.00017  -0.00003   0.00235   0.00175  -0.00060
  71        4PY         0.00742  -0.00285  -0.00033  -0.00992   0.00678
  72        4PZ         0.00186   0.00144  -0.00076   0.00456   0.00406
  73 6   H  1S          0.00467   0.00000  -0.01985  -0.00995   0.00000
  74        2S         -0.00000   0.00000   0.13370  -0.05106   0.00000
  75        3S         -0.02790   0.00000  -0.23989   0.19815   0.00000
  76        4PX        -0.00481   0.00000   0.00168  -0.00478   0.00000
  77        4PY         0.01000   0.00000  -0.00074  -0.00902   0.00000
  78        4PZ         0.00000   0.00183   0.00000   0.00000   0.00539
  79 7   H  1S          0.00433  -0.01300   0.01104  -0.01494  -0.02732
  80        2S         -0.02894   0.10853  -0.07519  -0.06356   0.03856
  81        3S          0.01766  -0.15575   0.15251   0.01291  -0.50965
  82        4PX        -0.00017   0.00003   0.00235   0.00175   0.00060
  83        4PY         0.00742   0.00285  -0.00033  -0.00992  -0.00678
  84        4PZ        -0.00186   0.00144   0.00076  -0.00456   0.00406
                          16        17        18        19        20
                           V         V         V         V         V
     Eigenvalues --     0.09465   0.13484   0.14275   0.14587   0.18679
   1 1   C  1S         -0.00330  -0.02706  -0.01756   0.00000  -0.03790
   2        2S         -0.00537  -0.04249  -0.02833   0.00000  -0.06082
   3        2PX        -0.08568   0.05494  -0.00654   0.00000  -0.02043
   4        2PY         0.00870   0.04689   0.03517   0.00000   0.04322
   5        2PZ         0.00000   0.00000   0.00000   0.03324   0.00000
   6        3S          0.01266   0.07749   0.05394   0.00000   0.13034
   7        3PX        -0.10271   0.06357   0.00091   0.00000  -0.02451
   8        3PY         0.00799   0.03247   0.05273   0.00000   0.02969
   9        3PZ         0.00000   0.00000   0.00000   0.05994   0.00000
  10        4S          0.10147   1.11605   0.61645   0.00000   1.65373
  11        4PX        -0.34031   0.40084  -0.06024   0.00000  -0.16506
  12        4PY         0.12347   0.66829   0.25872   0.00000   0.43094
  13        4PZ         0.00000   0.00000   0.00000   0.10874   0.00000
  14        5S          1.87600   4.30567 -32.32187   0.00000   7.16672
  15        5PX         2.16782   0.01859   0.04768   0.00000  -0.17029
  16        5PY        -0.58169  -0.62799   9.51566   0.00000  -1.24079
  17        5PZ         0.00000   0.00000   0.00000   0.24290   0.00000
  18        6D 0       -0.00247  -0.01332  -0.00155   0.00000  -0.01024
  19        6D+1        0.00000   0.00000   0.00000   0.00083   0.00000
  20        6D-1        0.00000   0.00000   0.00000  -0.01962   0.00000
  21        6D+2        0.00159   0.00554  -0.00496   0.00000   0.00834
  22        6D-2        0.00056   0.00887  -0.00125   0.00000  -0.01127
  23        7D 0        0.00667  -0.00793   0.02278   0.00000   0.00309
  24        7D+1        0.00000   0.00000   0.00000   0.04408   0.00000
  25        7D-1        0.00000   0.00000   0.00000   0.00720   0.00000
  26        7D+2        0.01212   0.05810  -0.02575   0.00000   0.02357
  27        7D-2        0.02292  -0.01674   0.00896   0.00000  -0.00424
  28 2   H  1S         -0.00811  -0.05061   0.00149  -0.04920  -0.06324
  29        2S         -0.01517  -0.11155  -0.15376  -0.09558  -0.11311
  30        3S         -0.22989  -1.56965   0.46641  -0.64213  -1.94745
  31        4PX         0.00335   0.00536  -0.00025   0.00096  -0.00399
  32        4PY         0.00220   0.00539   0.00925  -0.00952  -0.00190
  33        4PZ         0.00006  -0.01076  -0.00371   0.00835  -0.00863
  34 3   H  1S         -0.00811  -0.05061   0.00149   0.04920  -0.06324
  35        2S         -0.01517  -0.11155  -0.15376   0.09558  -0.11311
  36        3S         -0.22989  -1.56965   0.46641   0.64213  -1.94745
  37        4PX         0.00335   0.00536  -0.00025  -0.00096  -0.00399
  38        4PY         0.00220   0.00539   0.00925   0.00952  -0.00190
  39        4PZ        -0.00006   0.01076   0.00371   0.00835   0.00863
  40 4   C  1S          0.00154   0.00540   0.01443   0.00000   0.00241
  41        2S          0.00237   0.00848   0.02352   0.00000   0.00400
  42        2PX         0.02325  -0.11205   0.00847   0.00000   0.11505
  43        2PY        -0.00633  -0.02511   0.04205   0.00000  -0.05450
  44        2PZ         0.00000   0.00000   0.00000   0.13585   0.00000
  45        3S         -0.00645  -0.02566  -0.05709   0.00000  -0.01410
  46        3PX         0.05228  -0.11603   0.01954   0.00000   0.13379
  47        3PY        -0.00291  -0.02149   0.06541   0.00000  -0.07498
  48        3PZ         0.00000   0.00000   0.00000   0.15146   0.00000
  49        4S          0.03649   0.22507  -0.28288   0.00000   0.16717
  50        4PX         0.03368  -1.05695   0.12473   0.00000   1.03012
  51        4PY         0.01930   0.04988   0.19287   0.00000  -0.32690
  52        4PZ         0.00000   0.00000   0.00000   1.32521   0.00000
  53        5S         -1.76297  -3.06613  32.52646   0.00000  -5.24992
  54        5PX        -2.16767  -0.60770  -0.00529   0.00000   1.03253
  55        5PY        -0.38886  -0.62251   9.41628   0.00000  -1.40299
  56        5PZ         0.00000   0.00000   0.00000   0.96670   0.00000
  57        6D 0       -0.00374  -0.01123   0.00279   0.00000   0.00766
  58        6D+1        0.00000   0.00000   0.00000   0.01752   0.00000
  59        6D-1        0.00000   0.00000   0.00000   0.01352   0.00000
  60        6D+2        0.00257   0.00583   0.00026   0.00000  -0.01006
  61        6D-2       -0.00634  -0.00278  -0.00001   0.00000   0.00716
  62        7D 0       -0.02739  -0.01361  -0.01056   0.00000  -0.00296
  63        7D+1        0.00000   0.00000   0.00000  -0.00108   0.00000
  64        7D-1        0.00000   0.00000   0.00000   0.00833   0.00000
  65        7D+2        0.01299   0.00275   0.02355   0.00000   0.01219
  66        7D-2        0.00540   0.01074  -0.00536   0.00000   0.00274
  67 5   H  1S         -0.01654  -0.01494   0.00729   0.07086   0.02593
  68        2S          0.00631  -0.09654   0.13727   0.24065   0.04867
  69        3S         -0.27010  -0.78660  -0.48231   2.12459   0.87373
  70        4PX        -0.00417  -0.00890   0.00050  -0.01090   0.01011
  71        4PY        -0.00085  -0.00323   0.00287  -0.00234  -0.00770
  72        4PZ         0.00079   0.00991  -0.00636  -0.00017  -0.00858
  73 6   H  1S          0.03764   0.04327   0.00147   0.00000  -0.06039
  74        2S         -0.02404   0.14069   0.05460   0.00000  -0.21332
  75        3S          0.66830   1.78486  -0.64654   0.00000  -2.18274
  76        4PX        -0.00253   0.01170   0.00979   0.00000  -0.00972
  77        4PY         0.00265   0.00146  -0.00245   0.00000   0.00370
  78        4PZ         0.00000   0.00000   0.00000   0.01885   0.00000
  79 7   H  1S         -0.01654  -0.01494   0.00729  -0.07086   0.02593
  80        2S          0.00631  -0.09654   0.13727  -0.24065   0.04867
  81        3S         -0.27010  -0.78660  -0.48231  -2.12459   0.87373
  82        4PX        -0.00417  -0.00890   0.00050   0.01090   0.01011
  83        4PY        -0.00085  -0.00323   0.00287   0.00234  -0.00770
  84        4PZ        -0.00079  -0.00991   0.00636  -0.00017   0.00858
                          21        22        23        24        25
                           V         V         V         V         V
     Eigenvalues --     0.21411   0.22908   0.25418   0.39063   0.41819
   1 1   C  1S          0.00000   0.01037  -0.03847   0.00000   0.00259
   2        2S          0.00000   0.01600  -0.06377   0.00000   0.00911
   3        2PX         0.00000  -0.00118   0.00146   0.00000   0.04216
   4        2PY         0.00000   0.04121  -0.13236   0.00000   0.07074
   5        2PZ        -0.16576   0.00000   0.00000   0.04943   0.00000
   6        3S          0.00000   0.00640   0.13392   0.00000  -0.02805
   7        3PX         0.00000  -0.00296   0.00017   0.00000   0.06870
   8        3PY         0.00000   0.08245  -0.27543   0.00000   0.14722
   9        3PZ        -0.14475   0.00000   0.00000  -0.03776   0.00000
  10        4S          0.00000  -0.91205   2.72191   0.00000  -0.06413
  11        4PX         0.00000   0.00171  -0.00007   0.00000   0.19399
  12        4PY         0.00000   0.66783  -2.65440   0.00000  -1.31453
  13        4PZ        -1.78808   0.00000   0.00000  -0.36853   0.00000
  14        5S          0.00000 -16.27688 -14.79437   0.00000   4.72721
  15        5PX         0.00000  -0.00519   0.00992   0.00000  -0.40034
  16        5PY         0.00000   4.01334   4.27369   0.00000  -0.39485
  17        5PZ        -2.43333   0.00000   0.00000   0.57929   0.00000
  18        6D 0        0.00000  -0.00302   0.01854   0.00000   0.02327
  19        6D+1        0.00379   0.00000   0.00000   0.00546   0.00000
  20        6D-1        0.01195   0.00000   0.00000   0.02582   0.00000
  21        6D+2        0.00000  -0.01049   0.02431   0.00000   0.00516
  22        6D-2        0.00000   0.00091   0.00229   0.00000   0.01427
  23        7D 0        0.00000   0.04064  -0.09099   0.00000  -0.18945
  24        7D+1        0.04781   0.00000   0.00000  -0.08459   0.00000
  25        7D-1        0.05557   0.00000   0.00000  -0.18833   0.00000
  26        7D+2        0.00000   0.02769  -0.12264   0.00000  -0.05791
  27        7D-2        0.00000   0.00242  -0.00223   0.00000  -0.00038
  28 2   H  1S          0.04628   0.01835   0.00838   0.05904   0.04236
  29        2S          0.14048   0.02637   0.11895   0.83562   0.83943
  30        3S          2.97594   0.24899   0.68945  -1.19753  -0.81851
  31        4PX         0.00551   0.00121   0.00177   0.00685   0.00062
  32        4PY         0.01626   0.00807  -0.03179   0.00284  -0.05278
  33        4PZ         0.01789  -0.00513   0.00971  -0.07252  -0.02262
  34 3   H  1S         -0.04628   0.01835   0.00838  -0.05904   0.04236
  35        2S         -0.14048   0.02637   0.11895  -0.83562   0.83943
  36        3S         -2.97594   0.24899   0.68945   1.19753  -0.81851
  37        4PX        -0.00551   0.00121   0.00177  -0.00685   0.00062
  38        4PY        -0.01626   0.00807  -0.03179  -0.00284  -0.05278
  39        4PZ         0.01789   0.00513  -0.00971  -0.07252   0.02262
  40 4   C  1S          0.00000  -0.06217   0.02381   0.00000   0.00077
  41        2S          0.00000  -0.09834   0.03858   0.00000   0.00431
  42        2PX         0.00000  -0.00700  -0.01859   0.00000   0.03661
  43        2PY         0.00000  -0.04852  -0.15053   0.00000   0.02183
  44        2PZ         0.05960   0.00000   0.00000   0.06330   0.00000
  45        3S          0.00000   0.18202  -0.04172   0.00000  -0.02255
  46        3PX         0.00000  -0.00630  -0.03864   0.00000  -0.02642
  47        3PY         0.00000   0.00247  -0.28872   0.00000  -0.13590
  48        3PZ         0.04090   0.00000   0.00000   0.01118   0.00000
  49        4S          0.00000   3.45490  -2.35873   0.00000  -1.20815
  50        4PX         0.00000  -0.06529  -0.15771   0.00000  -1.14820
  51        4PY         0.00000  -0.13718  -2.81323   0.00000   0.22654
  52        4PZ         1.07418   0.00000   0.00000  -0.84962   0.00000
  53        5S          0.00000  20.04369  15.47979   0.00000  -3.98120
  54        5PX         0.00000  -0.05109  -0.15170   0.00000   1.22696
  55        5PY         0.00000   4.42478   4.63493   0.00000  -1.47844
  56        5PZ         1.50389   0.00000   0.00000   0.95976   0.00000
  57        6D 0        0.00000  -0.00085  -0.01885   0.00000  -0.00774
  58        6D+1        0.00615   0.00000   0.00000  -0.01578   0.00000
  59        6D-1       -0.01428   0.00000   0.00000  -0.01584   0.00000
  60        6D+2        0.00000   0.00032  -0.02686   0.00000   0.02591
  61        6D-2        0.00000  -0.00071  -0.00141   0.00000  -0.01005
  62        7D 0        0.00000  -0.02254   0.09109   0.00000   0.17610
  63        7D+1       -0.01807   0.00000   0.00000   0.08716   0.00000
  64        7D-1       -0.03335   0.00000   0.00000   0.01403   0.00000
  65        7D+2        0.00000  -0.03304   0.10845   0.00000  -0.00868
  66        7D-2        0.00000  -0.00226  -0.00090   0.00000   0.15256
  67 5   H  1S         -0.01364  -0.04687  -0.03627  -0.06419  -0.01549
  68        2S          0.07552  -0.00585  -0.14807  -1.03599  -0.41004
  69        3S          1.11129  -2.99167  -1.07676   1.49726   0.91463
  70        4PX        -0.00924   0.00623  -0.00295  -0.02093  -0.04277
  71        4PY         0.01795   0.00604  -0.02080  -0.01448  -0.00529
  72        4PZ        -0.00285   0.01281   0.00458  -0.05573  -0.02104
  73 6   H  1S          0.00000  -0.03906  -0.01755   0.00000   0.08173
  74        2S          0.00000   0.01203  -0.04835   0.00000   1.53430
  75        3S          0.00000  -2.74268  -0.62757   0.00000  -1.29871
  76        4PX         0.00000  -0.01255  -0.00636   0.00000  -0.07284
  77        4PY         0.00000   0.00428  -0.02240   0.00000   0.03658
  78        4PZ         0.00993   0.00000   0.00000  -0.01696   0.00000
  79 7   H  1S          0.01364  -0.04687  -0.03627   0.06419  -0.01549
  80        2S         -0.07552  -0.00585  -0.14807   1.03599  -0.41004
  81        3S         -1.11129  -2.99167  -1.07676  -1.49726   0.91463
  82        4PX         0.00924   0.00623  -0.00295   0.02093  -0.04277
  83        4PY        -0.01795   0.00604  -0.02080   0.01448  -0.00529
  84        4PZ        -0.00285  -0.01281  -0.00458  -0.05573   0.02104
                          26        27        28        29        30
                           V         V         V         V         V
     Eigenvalues --     0.42737   0.46796   0.48491   0.53324   0.55450
   1 1   C  1S          0.00039   0.00000   0.01692   0.00693  -0.01173
   2        2S          0.00381   0.00000   0.02489   0.01346  -0.02260
   3        2PX        -0.03283   0.00000   0.00666   0.16598   0.17941
   4        2PY         0.06812   0.00000   0.05096  -0.05251   0.03160
   5        2PZ         0.00000   0.04831   0.00000   0.00000   0.00000
   6        3S         -0.04984   0.00000   0.02630  -0.05669   0.11425
   7        3PX        -0.06577   0.00000   0.02240   0.63309   0.62452
   8        3PY         0.22944   0.00000  -0.25068  -0.09014   0.08615
   9        3PZ         0.00000   0.11280   0.00000   0.00000   0.00000
  10        4S          0.34043   0.00000   1.34761  -0.75318   0.28548
  11        4PX        -0.26073   0.00000  -0.09306  -1.30537  -1.39237
  12        4PY        -1.29720   0.00000  -0.48762   0.52744  -0.20245
  13        4PZ         0.00000  -1.66291   0.00000   0.00000   0.00000
  14        5S          4.18314   0.00000   5.12510  -0.45701   0.14214
  15        5PX         0.52349   0.00000   0.15772   0.97278   0.61050
  16        5PY        -0.23955   0.00000  -1.32420   0.08861  -0.11462
  17        5PZ         0.00000   1.51054   0.00000   0.00000   0.00000
  18        6D 0        0.01815   0.00000  -0.00148   0.00408  -0.00633
  19        6D+1        0.00000   0.00053   0.00000   0.00000   0.00000
  20        6D-1        0.00000   0.00994   0.00000   0.00000   0.00000
  21        6D+2        0.00961   0.00000  -0.02715  -0.00146   0.00360
  22        6D-2       -0.00829   0.00000   0.00046  -0.01115  -0.00517
  23        7D 0        0.05777   0.00000  -0.10949   0.07247   0.00548
  24        7D+1        0.00000   0.23144   0.00000   0.00000   0.00000
  25        7D-1        0.00000  -0.04168   0.00000   0.00000   0.00000
  26        7D+2       -0.12684   0.00000  -0.39643   0.10122  -0.08070
  27        7D-2       -0.00564   0.00000  -0.00729  -0.23046   0.25013
  28 2   H  1S          0.03444   0.02864   0.06514   0.00927  -0.02313
  29        2S          0.57480   0.95314   0.63012   0.12466  -0.21617
  30        3S         -0.74925  -0.87002  -1.28647   0.00463   0.16440
  31        4PX        -0.00862  -0.00426  -0.00347  -0.00523   0.00763
  32        4PY        -0.02607  -0.01763  -0.00434  -0.00140   0.00151
  33        4PZ        -0.00048  -0.04134  -0.01616   0.00758  -0.00729
  34 3   H  1S          0.03444  -0.02864   0.06514   0.00927  -0.02313
  35        2S          0.57480  -0.95314   0.63012   0.12466  -0.21617
  36        3S         -0.74925   0.87002  -1.28647   0.00463   0.16440
  37        4PX        -0.00862   0.00426  -0.00347  -0.00523   0.00763
  38        4PY        -0.02607   0.01763  -0.00434  -0.00140   0.00151
  39        4PZ         0.00048  -0.04134   0.01616  -0.00758   0.00729
  40 4   C  1S          0.00273   0.00000  -0.02963   0.00406  -0.00116
  41        2S          0.00733   0.00000  -0.05568   0.00745  -0.00212
  42        2PX        -0.04155   0.00000   0.01235   0.11670  -0.20140
  43        2PY         0.00174   0.00000   0.20724  -0.04008   0.01482
  44        2PZ         0.00000  -0.08495   0.00000   0.00000   0.00000
  45        3S         -0.02227   0.00000   0.30479  -0.05324   0.01906
  46        3PX        -0.07188   0.00000   0.01316   0.33118  -0.53606
  47        3PY        -0.14979   0.00000   0.45494  -0.05591   0.03013
  48        3PZ         0.00000  -0.20727   0.00000   0.00000   0.00000
  49        4S         -1.29320   0.00000  -0.94118   0.66056  -0.29182
  50        4PX         0.95330   0.00000  -0.03208  -0.82251   2.08767
  51        4PY         0.23400   0.00000  -2.07512   0.63242  -0.28534
  52        4PZ         0.00000   1.90079   0.00000   0.00000   0.00000
  53        5S         -3.40587   0.00000  -4.36120   0.31150  -0.11386
  54        5PX        -1.23614   0.00000  -0.11168  -0.72677  -0.16797
  55        5PY        -1.40386   0.00000  -0.31704   0.02991  -0.02139
  56        5PZ         0.00000  -1.43454   0.00000   0.00000   0.00000
  57        6D 0        0.01899   0.00000  -0.00908   0.00533  -0.00273
  58        6D+1        0.00000   0.01041   0.00000   0.00000   0.00000
  59        6D-1        0.00000  -0.01209   0.00000   0.00000   0.00000
  60        6D+2        0.00872   0.00000  -0.01569  -0.00173   0.00059
  61        6D-2        0.00691   0.00000   0.00021   0.00646  -0.01621
  62        7D 0        0.08496   0.00000   0.19841   0.03503  -0.13339
  63        7D+1        0.00000   0.03340   0.00000   0.00000   0.00000
  64        7D-1        0.00000  -0.33097   0.00000   0.00000   0.00000
  65        7D+2        0.03671   0.00000   0.16345  -0.12965   0.10146
  66        7D-2       -0.11848   0.00000   0.01457   0.36323  -0.20677
  67 5   H  1S          0.04032  -0.01276  -0.01560   0.02915  -0.04116
  68        2S          0.77361   0.81403  -0.42096   0.03793   0.08212
  69        3S         -0.59167  -0.45226   0.17507  -0.62162   0.67527
  70        4PX         0.01957   0.01330  -0.01190  -0.00720   0.01483
  71        4PY         0.02194   0.06664  -0.01284  -0.01149   0.05158
  72        4PZ         0.01518   0.04841  -0.01521  -0.02195   0.02464
  73 6   H  1S         -0.02857   0.00000  -0.02152  -0.05515   0.08582
  74        2S         -0.66705   0.00000  -0.40624  -0.04063  -0.09744
  75        3S          1.46403   0.00000   0.34348   1.44141  -1.58211
  76        4PX         0.04280   0.00000   0.00424  -0.05597   0.05915
  77        4PY        -0.00579   0.00000  -0.01083   0.01691  -0.09918
  78        4PZ         0.00000   0.02131   0.00000   0.00000   0.00000
  79 7   H  1S          0.04032   0.01276  -0.01560   0.02915  -0.04116
  80        2S          0.77361  -0.81403  -0.42096   0.03793   0.08212
  81        3S         -0.59167   0.45226   0.17507  -0.62162   0.67527
  82        4PX         0.01957  -0.01330  -0.01190  -0.00720   0.01483
  83        4PY         0.02194  -0.06664  -0.01284  -0.01149   0.05158
  84        4PZ        -0.01518   0.04841   0.01521   0.02195  -0.02464
                          31        32        33        34        35
                           V         V         V         V         V
     Eigenvalues --     0.56436   0.57417   0.62520   0.64418   0.64796
   1 1   C  1S          0.00000  -0.01596   0.00000  -0.05046   0.00000
   2        2S          0.00000  -0.03063   0.00000  -0.09574   0.00000
   3        2PX         0.00000  -0.00754   0.00000  -0.02535   0.00000
   4        2PY         0.00000  -0.27074   0.00000   0.01704   0.00000
   5        2PZ        -0.07152   0.00000   0.21568   0.00000  -0.14814
   6        3S          0.00000   0.30296   0.00000   0.66763   0.00000
   7        3PX         0.00000  -0.03080   0.00000  -0.11992   0.00000
   8        3PY         0.00000  -0.49192   0.00000  -0.00289   0.00000
   9        3PZ        -0.13172   0.00000   0.65990   0.00000  -0.47264
  10        4S          0.00000  -3.24728   0.00000  -0.51964   0.00000
  11        4PX         0.00000   0.12022   0.00000  -0.11475   0.00000
  12        4PY         0.00000   3.56851   0.00000  -1.41323   0.00000
  13        4PZ         1.43699   0.00000  -1.79763   0.00000   2.29477
  14        5S          0.00000   8.98339   0.00000  -3.98827   0.00000
  15        5PX         0.00000  -0.02090   0.00000  -0.07805   0.00000
  16        5PY         0.00000  -2.46970   0.00000   0.69916   0.00000
  17        5PZ        -0.11241   0.00000  -1.18072   0.00000   0.72502
  18        6D 0        0.00000   0.00207   0.00000  -0.00575   0.00000
  19        6D+1       -0.00407   0.00000   0.00099   0.00000   0.00847
  20        6D-1       -0.00358   0.00000  -0.01704   0.00000   0.00613
  21        6D+2        0.00000  -0.01222   0.00000   0.00824   0.00000
  22        6D-2        0.00000   0.00362   0.00000  -0.01087   0.00000
  23        7D 0        0.00000   0.45658   0.00000  -0.35532   0.00000
  24        7D+1        0.06118   0.00000   0.42483   0.00000   0.78163
  25        7D-1        0.51907   0.00000  -0.26564   0.00000   0.12772
  26        7D+2        0.00000   0.31950   0.00000  -0.11225   0.00000
  27        7D-2        0.00000   0.10340   0.00000  -0.26992   0.00000
  28 2   H  1S          0.00896   0.04945  -0.08666  -0.02766   0.04503
  29        2S         -0.66716   0.31128  -0.33178   0.17085  -0.24159
  30        3S         -0.72713  -1.56060   2.34613   1.05525  -1.71804
  31        4PX         0.00654   0.00362   0.02890  -0.02941   0.05401
  32        4PY         0.00435   0.02200  -0.05241  -0.03106   0.02399
  33        4PZ         0.09165   0.02206  -0.03313  -0.05306   0.04729
  34 3   H  1S         -0.00896   0.04945   0.08666  -0.02766  -0.04503
  35        2S          0.66716   0.31128   0.33178   0.17085   0.24159
  36        3S          0.72713  -1.56060  -2.34613   1.05525   1.71804
  37        4PX        -0.00654   0.00362  -0.02890  -0.02941  -0.05401
  38        4PY        -0.00435   0.02200   0.05241  -0.03106  -0.02399
  39        4PZ         0.09165  -0.02206  -0.03313   0.05306   0.04729
  40 4   C  1S          0.00000   0.02549   0.00000   0.01833   0.00000
  41        2S          0.00000   0.04305   0.00000   0.03175   0.00000
  42        2PX         0.00000  -0.02134   0.00000  -0.06691   0.00000
  43        2PY         0.00000  -0.12998   0.00000   0.07410   0.00000
  44        2PZ        -0.24309   0.00000  -0.09453   0.00000   0.05853
  45        3S          0.00000  -0.14808   0.00000   0.03138   0.00000
  46        3PX         0.00000  -0.05064   0.00000  -0.25679   0.00000
  47        3PY         0.00000   0.06328   0.00000   0.26520   0.00000
  48        3PZ        -0.65296   0.00000  -0.31684   0.00000   0.13314
  49        4S          0.00000   2.77365   0.00000  -2.03356   0.00000
  50        4PX         0.00000   0.23642   0.00000   0.48396   0.00000
  51        4PY         0.00000   2.97019   0.00000  -0.92033   0.00000
  52        4PZ         1.64744   0.00000   0.20674   0.00000  -1.70294
  53        5S          0.00000  -8.01686   0.00000   4.71875   0.00000
  54        5PX         0.00000   0.12960   0.00000   0.08198   0.00000
  55        5PY         0.00000  -2.33652   0.00000   1.05853   0.00000
  56        5PZ         0.55037   0.00000   0.74969   0.00000  -0.43337
  57        6D 0        0.00000  -0.00274   0.00000  -0.00233   0.00000
  58        6D+1       -0.00997   0.00000  -0.00566   0.00000  -0.00019
  59        6D-1       -0.01125   0.00000  -0.00203   0.00000   0.00255
  60        6D+2        0.00000  -0.00496   0.00000   0.00137   0.00000
  61        6D-2        0.00000  -0.00500   0.00000   0.00934   0.00000
  62        7D 0        0.00000  -0.28339   0.00000  -0.31076   0.00000
  63        7D+1       -0.36771   0.00000  -0.03790   0.00000   0.25232
  64        7D-1       -0.14004   0.00000   0.24639   0.00000   0.16750
  65        7D+2        0.00000  -0.56833   0.00000   0.09028   0.00000
  66        7D-2        0.00000  -0.11278   0.00000   0.28649   0.00000
  67 5   H  1S         -0.08894   0.03171  -0.03957   0.05733   0.00512
  68        2S         -0.19000   0.51942  -0.48967   0.90091  -0.51382
  69        3S          2.05154   0.46064   0.57435  -0.78559  -0.71504
  70        4PX         0.04761   0.01618   0.00595  -0.01427  -0.00615
  71        4PY         0.04141   0.00069   0.03306  -0.01567  -0.02735
  72        4PZ         0.05822   0.02140  -0.01743   0.02840  -0.04006
  73 6   H  1S          0.00000   0.05987   0.00000   0.05929   0.00000
  74        2S          0.00000   0.56917   0.00000   0.87004   0.00000
  75        3S          0.00000  -0.17184   0.00000  -1.32448   0.00000
  76        4PX         0.00000  -0.01672   0.00000   0.03078   0.00000
  77        4PY         0.00000  -0.02905   0.00000   0.04993   0.00000
  78        4PZ        -0.02275   0.00000  -0.03481   0.00000  -0.02067
  79 7   H  1S          0.08894   0.03171   0.03957   0.05733  -0.00512
  80        2S          0.19000   0.51942   0.48967   0.90091   0.51382
  81        3S         -2.05154   0.46064  -0.57435  -0.78559   0.71504
  82        4PX        -0.04761   0.01618  -0.00595  -0.01427   0.00615
  83        4PY        -0.04141   0.00069  -0.03306  -0.01567   0.02735
  84        4PZ         0.05822  -0.02140  -0.01743  -0.02840  -0.04006
                          36        37        38        39        40
                           V         V         V         V         V
     Eigenvalues --     0.65139   0.72307   0.84324   0.87243   0.91470
   1 1   C  1S         -0.04827   0.06904  -0.04484   0.00000  -0.02891
   2        2S         -0.09114   0.13310  -0.09318   0.00000  -0.06375
   3        2PX         0.03455   0.00346  -0.00876   0.00000   0.00915
   4        2PY         0.05607  -0.03513   0.00192   0.00000  -0.04199
   5        2PZ         0.00000   0.00000   0.00000   0.07371   0.00000
   6        3S          0.56723  -1.10643   0.81922   0.00000   0.97360
   7        3PX         0.13775   0.04444  -0.07626   0.00000   0.07170
   8        3PY         0.13206  -0.25795   0.18634   0.00000  -0.18228
   9        3PZ         0.00000   0.00000   0.00000   0.33533   0.00000
  10        4S          0.09063   5.23696  -3.38917   0.00000  -6.20395
  11        4PX         0.11342  -0.04577   0.34252   0.00000  -0.60117
  12        4PY        -1.41473  -0.80418   2.34615   0.00000   1.36348
  13        4PZ         0.00000   0.00000   0.00000   2.96241   0.00000
  14        5S         -4.77344 -13.15712   2.78044   0.00000   4.63316
  15        5PX         0.05936   0.01456  -0.11360   0.00000   0.18549
  16        5PY         0.85695   3.69311  -1.13402   0.00000  -1.27334
  17        5PZ         0.00000   0.00000   0.00000  -0.29902   0.00000
  18        6D 0       -0.00645   0.00329  -0.00440   0.00000  -0.00952
  19        6D+1        0.00000   0.00000   0.00000   0.00128   0.00000
  20        6D-1        0.00000   0.00000   0.00000   0.01014   0.00000
  21        6D+2        0.00930  -0.00631  -0.00340   0.00000  -0.00060
  22        6D-2        0.00978   0.00105  -0.00254   0.00000   0.00384
  23        7D 0       -0.24371   0.18150   0.69597   0.00000  -0.66643
  24        7D+1        0.00000   0.00000   0.00000   0.01768   0.00000
  25        7D-1        0.00000   0.00000   0.00000   0.33098   0.00000
  26        7D+2       -0.16555   0.05063  -0.06897   0.00000   0.64981
  27        7D-2        0.20723   0.05834  -0.16302   0.00000   0.26259
  28 2   H  1S         -0.05448   0.04191  -0.03708  -0.02325   0.01072
  29        2S         -0.26669  -0.37265  -0.61648  -1.56091   1.47449
  30        3S          1.29378  -0.47699   0.10852  -0.25669  -0.12683
  31        4PX         0.02005   0.01818  -0.00921  -0.02974   0.01154
  32        4PY        -0.02354   0.06093  -0.00398   0.00614  -0.01935
  33        4PZ        -0.05118   0.08703  -0.02490   0.06305  -0.10514
  34 3   H  1S         -0.05448   0.04191  -0.03708   0.02325   0.01072
  35        2S         -0.26669  -0.37265  -0.61648   1.56091   1.47449
  36        3S          1.29378  -0.47699   0.10852   0.25669  -0.12683
  37        4PX         0.02005   0.01818  -0.00921   0.02974   0.01154
  38        4PY        -0.02354   0.06093  -0.00398  -0.00614  -0.01935
  39        4PZ         0.05118  -0.08703   0.02490   0.06305   0.10514
  40 4   C  1S          0.01452   0.05889   0.07681   0.00000   0.04843
  41        2S          0.02551   0.10850   0.15463   0.00000   0.10060
  42        2PX         0.13234  -0.00642  -0.02432   0.00000   0.04351
  43        2PY         0.06130   0.14389  -0.01084   0.00000  -0.02105
  44        2PZ         0.00000   0.00000   0.00000   0.01305   0.00000
  45        3S          0.00638  -0.65165  -1.60218   0.00000  -1.20768
  46        3PX         0.42790   0.04074  -0.19014   0.00000   0.27938
  47        3PY         0.18745   0.40722   0.06861   0.00000  -0.02884
  48        3PZ         0.00000   0.00000   0.00000   0.16855   0.00000
  49        4S         -1.79645   0.53393   7.59567   0.00000   6.48548
  50        4PX        -1.30697   0.29574  -0.79402   0.00000   1.28273
  51        4PY        -1.06471  -2.94843   0.99029   0.00000   1.60324
  52        4PZ         0.00000   0.00000   0.00000  -2.30684   0.00000
  53        5S          5.08893  15.50051  -1.99344   0.00000  -4.20798
  54        5PX        -0.33113   0.06175   0.16413   0.00000  -0.29924
  55        5PY         1.20879   3.74782  -0.90478   0.00000  -1.35571
  56        5PZ         0.00000   0.00000   0.00000   0.20864   0.00000
  57        6D 0        0.00169   0.00038   0.00081   0.00000  -0.00204
  58        6D+1        0.00000   0.00000   0.00000  -0.00153   0.00000
  59        6D-1        0.00000   0.00000   0.00000  -0.00982   0.00000
  60        6D+2       -0.00060  -0.00737   0.00140   0.00000   0.00194
  61        6D-2       -0.00521  -0.00188   0.00177   0.00000  -0.00186
  62        7D 0        0.43132   0.19784   0.33380   0.00000  -0.50647
  63        7D+1        0.00000   0.00000   0.00000   0.73405   0.00000
  64        7D-1        0.00000   0.00000   0.00000  -0.70594   0.00000
  65        7D+2       -0.25133   0.58429  -0.15526   0.00000   0.32892
  66        7D-2       -0.21090  -0.09031   0.25245   0.00000  -0.32788
  67 5   H  1S          0.05711   0.06596   0.01586  -0.02089   0.02163
  68        2S          0.58308   0.43548  -1.15255  -0.73066  -0.11685
  69        3S         -1.51903  -2.34783  -1.02721  -0.33103  -0.39576
  70        4PX         0.00520  -0.02091  -0.08679  -0.03396   0.01223
  71        4PY         0.01911  -0.00890  -0.04421   0.07886  -0.06091
  72        4PZ        -0.04408  -0.05984  -0.09497  -0.05489  -0.04956
  73 6   H  1S          0.00715   0.07303   0.04085   0.00000  -0.01191
  74        2S          0.74773   0.12700   0.09310   0.00000  -2.08114
  75        3S          0.47539  -2.61681  -1.10563   0.00000  -0.09338
  76        4PX        -0.06872   0.09492   0.05200   0.00000   0.14916
  77        4PY        -0.02002  -0.03334  -0.04476   0.00000  -0.02879
  78        4PZ         0.00000   0.00000   0.00000   0.02363   0.00000
  79 7   H  1S          0.05711   0.06596   0.01586   0.02089   0.02163
  80        2S          0.58308   0.43548  -1.15255   0.73066  -0.11685
  81        3S         -1.51903  -2.34783  -1.02721   0.33103  -0.39576
  82        4PX         0.00520  -0.02091  -0.08679   0.03396   0.01223
  83        4PY         0.01911  -0.00890  -0.04421  -0.07886  -0.06091
  84        4PZ         0.04408   0.05984   0.09497  -0.05489   0.04956
                          41        42        43        44        45
                           V         V         V         V         V
     Eigenvalues --     1.06858   1.07076   1.08913   1.16406   1.23043
   1 1   C  1S          0.00000   0.00279   0.00000  -0.01773  -0.03978
   2        2S          0.00000   0.00722   0.00000  -0.04405  -0.09965
   3        2PX         0.00000  -0.03409   0.00000  -0.02880   0.01147
   4        2PY         0.00000   0.00307   0.00000  -0.02354   0.10264
   5        2PZ        -0.02087   0.00000   0.05633   0.00000   0.00000
   6        3S          0.00000  -0.16011   0.00000   0.74806   1.22948
   7        3PX         0.00000  -0.07732   0.00000  -0.17389   0.05743
   8        3PY         0.00000   0.07440   0.00000  -0.56723  -0.26794
   9        3PZ        -0.53056   0.00000   0.54058   0.00000   0.00000
  10        4S          0.00000   0.98073   0.00000  -2.30673  -2.02698
  11        4PX         0.00000  -1.14691   0.00000   0.33734  -0.14863
  12        4PY         0.00000  -0.15408   0.00000   0.33565   2.79349
  13        4PZ        -0.96423   0.00000   0.34252   0.00000   0.00000
  14        5S          0.00000  -0.78734   0.00000   2.57216   1.06871
  15        5PX         0.00000   0.20872   0.00000  -0.23267   0.09618
  16        5PY         0.00000   0.18692   0.00000  -0.60811  -0.81489
  17        5PZ         0.54202   0.00000  -0.14655   0.00000   0.00000
  18        6D 0        0.00000   0.00526   0.00000  -0.01185   0.00138
  19        6D+1       -0.00510   0.00000  -0.00025   0.00000   0.00000
  20        6D-1       -0.00121   0.00000   0.01660   0.00000   0.00000
  21        6D+2        0.00000  -0.00014   0.00000  -0.00344  -0.01521
  22        6D-2        0.00000  -0.00519   0.00000  -0.00851   0.00510
  23        7D 0        0.00000   0.15548   0.00000  -0.78567   1.17407
  24        7D+1       -0.05173   0.00000   0.40394   0.00000   0.00000
  25        7D-1       -2.01106   0.00000   0.99384   0.00000   0.00000
  26        7D+2        0.00000  -0.16591   0.00000   0.80596   0.93750
  27        7D-2        0.00000   1.41861   0.00000  -0.18631   0.13989
  28 2   H  1S         -0.02720   0.00182   0.03838  -0.03221   0.05150
  29        2S          2.02033  -0.36422  -1.28114   1.24691  -0.83612
  30        3S         -0.63872   0.07077   0.50125  -0.36006   0.17141
  31        4PX         0.02597   0.02749   0.10847   0.01726  -0.00121
  32        4PY        -0.19644   0.00607   0.07557  -0.05463  -0.09180
  33        4PZ        -0.07386   0.01376   0.03852  -0.07309   0.01582
  34 3   H  1S          0.02720   0.00182  -0.03838  -0.03221   0.05150
[...]
                                           -0.0000  0.0000  0.0000 -0.0212  0.9563
                                           -0.0016 -0.1214 -0.0000 -0.0000 -0.1206
                                            0.0073 -0.0903 -0.2180 -0.0000 -0.0000
                                           -0.0000 -0.0000
    43. (0.00076) RY*( 2) C   4           s( 50.43%)p 0.80( 40.21%)d 0.19(  9.36%)
                                           -0.0000  0.0023  0.6934  0.1530 -0.0105
                                            0.0056 -0.0658  0.0102  0.0141  0.0375
                                            0.5457 -0.3108 -0.0398 -0.0000 -0.0000
                                            0.0000 -0.0000 -0.0258  0.0331  0.0000
                                           -0.0000  0.0000  0.0000 -0.2262  0.1998
                                            0.0199 -0.0185
    44. (0.00007) RY*( 3) C   4           s( 24.74%)p 1.72( 42.58%)d 1.32( 32.68%)
    45. (0.00000) RY*( 4) C   4           s(  1.04%)p94.85( 98.92%)d 0.03(  0.03%)
    46. (0.00000) RY*( 5) C   4           s(  0.01%)p99.99( 99.98%)d 0.72(  0.01%)
    47. (0.00000) RY*( 6) C   4           s(  0.02%)p99.99( 99.96%)d 0.74(  0.02%)
    48. (0.00000) RY*( 7) C   4           s( 47.25%)p 0.60( 28.44%)d 0.51( 24.31%)
    49. (0.00000) RY*( 8) C   4           s(  7.59%)p12.14( 92.21%)d 0.03(  0.20%)
    50. (0.00000) RY*( 9) C   4           s(  2.53%)p37.50( 94.73%)d 1.09(  2.74%)
    51. (0.00000) RY*(10) C   4           s( 58.98%)p 0.02(  1.21%)d 0.68( 39.82%)
    52. (0.00000) RY*(11) C   4           s(  0.00%)p 1.00(100.00%)d 0.00(  0.00%)
    53. (0.00000) RY*(12) C   4           s(  0.00%)p 1.00(100.00%)d 0.00(  0.00%)
    54. (0.00000) RY*(13) C   4           s(  0.06%)p 0.52(  0.03%)d99.99( 99.92%)
    55. (0.00000) RY*(14) C   4           s(  0.12%)p 0.19(  0.02%)d99.99( 99.86%)
    56. (0.00000) RY*(15) C   4           s(  0.00%)p 1.00(  1.62%)d60.76( 98.38%)
    57. (0.00000) RY*(16) C   4           s(  0.00%)p 0.00(  0.01%)d 1.00( 99.99%)
    58. (0.00000) RY*(17) C   4           s(  0.00%)p 1.00(  0.89%)d99.99( 99.11%)
    59. (0.00000) RY*(18) C   4           s(  0.00%)p 1.00(  4.64%)d20.55( 95.36%)
    60. (0.00000) RY*(19) C   4           s( 99.92%)p 0.00(  0.06%)d 0.00(  0.02%)
    61. (0.00000) RY*(20) C   4           s(  6.79%)p 0.17(  1.17%)d13.56( 92.04%)
    62. (0.00000) RY*(21) C   4           s(  0.32%)p 2.81(  0.89%)d99.99( 98.79%)
    63. (0.00000) RY*(22) C   4           s(  0.01%)p 2.46(  0.03%)d99.99( 99.95%)
    64. (0.00044) RY*( 1) H   5           s( 91.97%)p 0.09(  8.03%)
                                           -0.0046  0.9586  0.0252  0.0282  0.2749
                                            0.0629
    65. (0.00006) RY*( 2) H   5           s(  9.14%)p 9.95( 90.86%)
    66. (0.00006) RY*( 3) H   5           s( 31.56%)p 2.17( 68.44%)
    67. (0.00003) RY*( 4) H   5           s( 60.62%)p 0.65( 39.38%)
    68. (0.00001) RY*( 5) H   5           s(  6.74%)p13.83( 93.26%)
    69. (0.00027) RY*( 1) H   6           s( 87.50%)p 0.14( 12.50%)
                                           -0.0119  0.9263  0.1296 -0.1506  0.3199
                                            0.0000
    70. (0.00005) RY*( 2) H   6           s(  0.00%)p 1.00(100.00%)
    71. (0.00004) RY*( 3) H   6           s(  2.49%)p39.13( 97.51%)
    72. (0.00003) RY*( 4) H   6           s( 99.58%)p 0.00(  0.42%)
    73. (0.00001) RY*( 5) H   6           s( 10.45%)p 8.57( 89.55%)
    74. (0.00044) RY*( 1) H   7           s( 91.97%)p 0.09(  8.03%)
                                           -0.0046  0.9586  0.0252  0.0282  0.2749
                                           -0.0629
    75. (0.00006) RY*( 2) H   7           s(  9.14%)p 9.95( 90.86%)
    76. (0.00006) RY*( 3) H   7           s( 31.56%)p 2.17( 68.44%)
    77. (0.00003) RY*( 4) H   7           s( 60.62%)p 0.65( 39.38%)
    78. (0.00001) RY*( 5) H   7           s(  6.74%)p13.83( 93.26%)
    79. (0.00343) BD*( 1) C   1 - H   2  
                ( 43.38%)   0.6587* C   1 s( 31.63%)p 2.16( 68.30%)d 0.00(  0.07%)
                                            0.0001 -0.5623 -0.0106 -0.0011  0.0002
                                           -0.0393  0.0029  0.0004 -0.0002 -0.4259
                                            0.0185  0.0035 -0.0014 -0.7068  0.0087
                                           -0.0005 -0.0011 -0.0030 -0.0011 -0.0044
                                           -0.0022 -0.0153  0.0064  0.0082  0.0023
                                           -0.0175 -0.0004
                ( 56.62%)  -0.7524* H   2 s( 99.93%)p 0.00(  0.07%)
                                           -0.9996  0.0023  0.0005  0.0024  0.0154
                                            0.0223
    80. (0.00343) BD*( 1) C   1 - H   3  
                ( 43.38%)   0.6587* C   1 s( 31.63%)p 2.16( 68.30%)d 0.00(  0.07%)
                                            0.0001 -0.5623 -0.0106 -0.0011  0.0002
                                           -0.0393  0.0029  0.0004 -0.0002 -0.4259
                                            0.0185  0.0035 -0.0014  0.7068 -0.0087
                                            0.0005  0.0011 -0.0030 -0.0011  0.0044
                                            0.0022  0.0153 -0.0064  0.0082  0.0023
                                           -0.0175 -0.0004
                ( 56.62%)  -0.7524* H   3 s( 99.93%)p 0.00(  0.07%)
                                           -0.9996  0.0023  0.0005  0.0024  0.0154
                                           -0.0223
    81. (0.00037) BD*( 1) C   1 - C   4  
                ( 53.91%)   0.7343* C   1 s( 36.66%)p 1.73( 63.27%)d 0.00(  0.06%)
                                            0.0001  0.6044 -0.0369  0.0049 -0.0000
                                           -0.0179 -0.0017  0.0000 -0.0002 -0.7939
                                            0.0458 -0.0090  0.0009  0.0000  0.0000
                                           -0.0000 -0.0000 -0.0011 -0.0017 -0.0000
                                           -0.0000  0.0000  0.0000 -0.0238 -0.0020
                                           -0.0043  0.0065
                ( 46.09%)  -0.6789* C   4 s( 31.13%)p 2.21( 68.75%)d 0.00(  0.12%)
                                            0.0001  0.5567 -0.0371  0.0019 -0.0000
                                           -0.0035  0.0010  0.0002 -0.0002  0.8287
                                           -0.0266  0.0002 -0.0090  0.0000  0.0000
                                           -0.0000  0.0000  0.0011 -0.0013 -0.0000
                                            0.0000 -0.0000 -0.0000 -0.0307  0.0038
                                           -0.0154 -0.0003
    82. (0.00329) BD*( 1) C   4 - H   5  
                ( 39.16%)   0.6258* C   4 s( 23.09%)p 3.33( 76.82%)d 0.00(  0.09%)
                                           -0.0000  0.4803  0.0138 -0.0008  0.0001
                                           -0.4054 -0.0051  0.0002 -0.0017 -0.3232
                                            0.0064 -0.0000 -0.0019 -0.7066 -0.0119
                                            0.0002 -0.0017  0.0049  0.0016  0.0199
                                           -0.0001  0.0150  0.0001  0.0022  0.0012
                                            0.0155  0.0002
                ( 60.84%)  -0.7800* H   5 s( 99.98%)p 0.00(  0.02%)
                                            0.9999  0.0022 -0.0003  0.0075  0.0056
                                            0.0120
    83. (0.00060) BD*( 1) C   4 - H   6  
                ( 37.35%)   0.6112* C   4 s( 22.88%)p 3.37( 77.04%)d 0.00(  0.08%)
                                            0.0001 -0.4781 -0.0130  0.0013  0.0000
                                           -0.8186 -0.0123  0.0017 -0.0017  0.3165
                                           -0.0065 -0.0004  0.0009  0.0000  0.0000
                                           -0.0000  0.0000  0.0112  0.0023 -0.0000
                                            0.0000 -0.0000 -0.0000 -0.0214  0.0013
                                            0.0157 -0.0018
                ( 62.65%)  -0.7915* H   6 s( 99.98%)p 0.00(  0.02%)
                                           -0.9998 -0.0084  0.0014  0.0140 -0.0068
                                           -0.0000
    84. (0.00329) BD*( 1) C   4 - H   7  
                ( 39.16%)   0.6258* C   4 s( 23.09%)p 3.33( 76.82%)d 0.00(  0.09%)
                                           -0.0000  0.4803  0.0138 -0.0008  0.0001
                                           -0.4054 -0.0051  0.0002 -0.0017 -0.3232
                                            0.0064 -0.0000 -0.0019  0.7066  0.0119
                                           -0.0002  0.0017  0.0049  0.0016 -0.0199
                                            0.0001 -0.0150 -0.0001  0.0022  0.0012
                                            0.0155  0.0002
                ( 60.84%)  -0.7800* H   7 s( 99.98%)p 0.00(  0.02%)
                                            0.9999  0.0022 -0.0003  0.0075  0.0056
                                           -0.0120


 NHO Directionality and "Bond Bending" (deviations from line of nuclear centers)

         [Thresholds for printing:  angular deviation  >  1.0 degree]
                                    hybrid p-character > 25.0%
                                    orbital occupancy  >  0.10e

                                Line of Centers        Hybrid 1              Hybrid 2
                                ---------------  -------------------   ------------------
                NBO               Theta   Phi    Theta   Phi    Dev    Theta   Phi    Dev
 ========================================================================================
     1. BD (   1) C   1 - H   2    31.3   81.7    30.2   84.9   2.0      --     --    --
     2. BD (   1) C   1 - H   3   148.7   81.7   149.8   84.9   2.0      --     --    --
     3. BD (   1) C   1 - C   4    90.0  270.0    90.0  268.5   1.5      --     --    --
     5. BD (   1) C   4 - H   6    90.0  337.9    90.0  339.5   1.6      --     --    --


 Second Order Perturbation Theory Analysis of Fock Matrix in NBO Basis

     Threshold for printing:   0.25 kcal/mol
                                                                              E(2)  E(j)-E(i) F(i,j)
         Donor NBO (i)                     Acceptor NBO (j)                 kcal/mol   a.u.    a.u. 
 ===================================================================================================

 within unit  1
   1. BD (   1) C   1 - H   2        / 42. RY*(   1) C   4                    0.41    1.25    0.029
   1. BD (   1) C   1 - H   2        / 43. RY*(   2) C   4                    0.46    1.72    0.036
   1. BD (   1) C   1 - H   2        / 82. BD*(   1) C   4 - H   5            0.97    0.90    0.037
   1. BD (   1) C   1 - H   2        / 84. BD*(   1) C   4 - H   7            0.28    0.90    0.020
   2. BD (   1) C   1 - H   3        / 42. RY*(   1) C   4                    0.41    1.25    0.029
   2. BD (   1) C   1 - H   3        / 43. RY*(   2) C   4                    0.46    1.72    0.036
   2. BD (   1) C   1 - H   3        / 82. BD*(   1) C   4 - H   5            0.28    0.90    0.020
   2. BD (   1) C   1 - H   3        / 84. BD*(   1) C   4 - H   7            0.97    0.90    0.037
   3. BD (   1) C   1 - C   4        / 82. BD*(   1) C   4 - H   5            0.26    1.03    0.021
   3. BD (   1) C   1 - C   4        / 83. BD*(   1) C   4 - H   6            0.27    1.02    0.021
   3. BD (   1) C   1 - C   4        / 84. BD*(   1) C   4 - H   7            0.26    1.03    0.021
   4. BD (   1) C   4 - H   5        /  9. LP*(   1) C   1                    1.14    0.48    0.030
   4. BD (   1) C   4 - H   5        / 79. BD*(   1) C   1 - H   2            1.33    0.93    0.045
   5. BD (   1) C   4 - H   6        /  9. LP*(   1) C   1                    6.18    0.48    0.069
   5. BD (   1) C   4 - H   6        / 13. RY*(   4) C   1                    0.30    0.85    0.020
   6. BD (   1) C   4 - H   7        /  9. LP*(   1) C   1                    1.14    0.48    0.030
   6. BD (   1) C   4 - H   7        / 80. BD*(   1) C   1 - H   3            1.33    0.93    0.045
   7. CR (   1) C   1                / 43. RY*(   2) C   4                    0.39   11.26    0.084
   7. CR (   1) C   1                / 44. RY*(   3) C   4                    0.46   10.69    0.089
   8. CR (   1) C   4                / 12. RY*(   3) C   1                    0.51   10.72    0.094
   9. LP*(   1) C   1                / 13. RY*(   4) C   1                    0.97    0.38    0.117
   9. LP*(   1) C   1                / 83. BD*(   1) C   4 - H   6            0.37    0.40    0.073


 Natural Bond Orbitals (Summary):

                                                            Principal Delocalizations
           NBO                        Occupancy    Energy   (geminal,vicinal,remote)
 ====================================================================================
 Molecular unit  1  (C2H5)
     1. BD (   1) C   1 - H   2          0.99576    -0.51192  82(v),43(v),42(v),84(v)
     2. BD (   1) C   1 - H   3          0.99576    -0.51192  84(v),43(v),42(v),82(v)
     3. BD (   1) C   1 - C   4          0.99896    -0.63863  83(g),82(g),84(g)
     4. BD (   1) C   4 - H   5          0.98897    -0.49657  79(v),9(v)
     5. BD (   1) C   4 - H   6          0.96916    -0.48918  9(v),13(v)
     6. BD (   1) C   4 - H   7          0.98897    -0.49657  80(v),9(v)
     7. CR (   1) C   1                  0.99975   -10.04519  44(v),43(v)
     8. CR (   1) C   4                  0.99971   -10.03179  12(v)
     9. LP*(   1) C   1                  0.04321    -0.01390   
    10. RY*(   1) C   1                  0.00059     1.04088   
    11. RY*(   2) C   1                  0.00036     1.10433   
    12. RY*(   3) C   1                  0.00008     0.69184   
    13. RY*(   4) C   1                  0.00000     0.36505   
    14. RY*(   5) C   1                  0.00000     0.85436   
    15. RY*(   6) C   1                  0.00000     2.28472   
    16. RY*(   7) C   1                  0.00000    23.17594   
    17. RY*(   8) C   1                  0.00000     0.63141   
    18. RY*(   9) C   1                  0.00000     2.10676   
    19. RY*(  10) C   1                  0.00000     0.62885   
    20. RY*(  11) C   1                  0.00000     0.58343   
    21. RY*(  12) C   1                  0.00000     2.72789   
    22. RY*(  13) C   1                  0.00000     2.71735   
    23. RY*(  14) C   1                  0.00000     1.92362   
    24. RY*(  15) C   1                  0.00000     2.76516   
    25. RY*(  16) C   1                  0.00000     1.59328   
    26. RY*(  17) C   1                  0.00000     2.69304   
    27. RY*(  18) C   1                  0.00000     2.26119   
    28. RY*(  19) C   1                  0.00000     2.86299   
    29. RY*(  20) C   1                  0.00000     2.17732   
    30. RY*(  21) C   1                  0.00000     2.90535   
    31. RY*(  22) C   1                  0.00000     2.28573   
    32. RY*(   1) H   2                  0.00032     0.62718   
    33. RY*(   2) H   2                  0.00007     2.43164   
    34. RY*(   3) H   2                  0.00003     2.33468   
    35. RY*(   4) H   2                  0.00001     1.91808   
    36. RY*(   5) H   2                  0.00000     1.69352   
    37. RY*(   1) H   3                  0.00032     0.62718   
    38. RY*(   2) H   3                  0.00007     2.43164   
    39. RY*(   3) H   3                  0.00003     2.33468   
    40. RY*(   4) H   3                  0.00001     1.91808   
    41. RY*(   5) H   3                  0.00000     1.69352   
    42. RY*(   1) C   4                  0.00103     0.73478   
    43. RY*(   2) C   4                  0.00076     1.21304   
    44. RY*(   3) C   4                  0.00007     0.64948   
    45. RY*(   4) C   4                  0.00000     0.46353   
    46. RY*(   5) C   4                  0.00000     3.08376   
    47. RY*(   6) C   4                  0.00000     0.24446   
    48. RY*(   7) C   4                  0.00000     0.95222   
    49. RY*(   8) C   4                  0.00000     2.50634   
    50. RY*(   9) C   4                  0.00000     0.25548   
    51. RY*(  10) C   4                  0.00000     1.32410   
    52. RY*(  11) C   4                  0.00000     3.10237   
    53. RY*(  12) C   4                  0.00000     0.22844   
    54. RY*(  13) C   4                  0.00000     1.71413   
    55. RY*(  14) C   4                  0.00000     2.55434   
    56. RY*(  15) C   4                  0.00000     1.80086   
    57. RY*(  16) C   4                  0.00000     2.66145   
    58. RY*(  17) C   4                  0.00000     1.79738   
    59. RY*(  18) C   4                  0.00000     2.45329   
    60. RY*(  19) C   4                  0.00000    23.22220   
    61. RY*(  20) C   4                  0.00000     3.03683   
    62. RY*(  21) C   4                  0.00000     1.88640   
    63. RY*(  22) C   4                  0.00000     2.69131   
    64. RY*(   1) H   5                  0.00044     0.73473   
    65. RY*(   2) H   5                  0.00006     1.96037   
    66. RY*(   3) H   5                  0.00006     2.03280   
    67. RY*(   4) H   5                  0.00003     2.15659   
    68. RY*(   5) H   5                  0.00001     2.51608   
    69. RY*(   1) H   6                  0.00027     0.90838   
    70. RY*(   2) H   6                  0.00005     1.88774   
    71. RY*(   3) H   6                  0.00004     1.98684   
    72. RY*(   4) H   6                  0.00003     2.18460   
    73. RY*(   5) H   6                  0.00001     2.38850   
    74. RY*(   1) H   7                  0.00044     0.73473   
    75. RY*(   2) H   7                  0.00006     1.96037   
    76. RY*(   3) H   7                  0.00006     2.03280   
    77. RY*(   4) H   7                  0.00003     2.15659   
    78. RY*(   5) H   7                  0.00001     2.51608   
    79. BD*(   1) C   1 - H   2          0.00343     0.43433   
    80. BD*(   1) C   1 - H   3          0.00343     0.43433   
    81. BD*(   1) C   1 - C   4          0.00037     0.44272   
    82. BD*(   1) C   4 - H   5          0.00329     0.39154   
    83. BD*(   1) C   4 - H   6          0.00060     0.38370   
    84. BD*(   1) C   4 - H   7          0.00329     0.39154   
       -------------------------------
              Total Lewis    7.93705  ( 99.2131%)
        Valence non-Lewis    0.05761  (  0.7202%)
        Rydberg non-Lewis    0.00534  (  0.0667%)
       -------------------------------
            Total unit  1    8.00000  (100.0000%)
           Charge unit  1    0.50000
 Leave Link  607 at Wed Sep  5 16:41:31 2018, MaxMem=   805306368 cpu:               4.5 elap:               0.6
 (Enter /home/g16/l9999.exe)
 1\1\GINC-PC2\Stability\UB3LYP\6-311+G(2d,p)\C2H5(2)\MASKER\05-Sep-2018
 \0\\#p b3lyp/6-311+g(2d,p) pop=(full,nboread) stable=opt g09def\\Et0-c
 1-1sp 1\\0,2\C,0,0.011108,0.79539,0.\H,0,-0.070714,1.353308,-0.927518\
 H,0,-0.070714,1.353308,0.927518\C,0,0.011108,-0.694158,0.\H,0,0.510436
 ,-1.10183,0.887654\H,0,-1.012742,-1.11035,0.\H,0,0.510436,-1.10183,-0.
 887654\\Version=ES64L-G16RevA.03\State=2-A'\HF=-79.1867895\S2=0.753946
 \S2-1=0.\S2A=0.75001\RMSD=2.957e-09\Dipole=-0.0587022,-0.1215407,0.\Qu
 adrupole=-0.6743681,0.0401473,0.6342208,-0.1557799,0.,0.\PG=CS [SG(C2H
 1),X(H4)]\\@


 GOOD SENSE ABOUT TRIVIALITIES IS BETTER THAN NONSENSE
 ABOUT THINGS THAT MATTER

                                       -- MAX BEERBOHM
 Job cpu time:       0 days  0 hours  0 minutes 48.9 seconds.
 Elapsed time:       0 days  0 hours  0 minutes  6.2 seconds.
 File lengths (MBytes):  RWF=     51 Int=      0 D2E=      0 Chk=      2 Scr=      1
 Normal termination of Gaussian 16 at Wed Sep  5 16:41:31 2018.
