 Entering Gaussian System, Link 0=g16
 Input=ipr-c1-1sp.gjf
 Output=ipr-c1-1sp.log
 Initial command:
 /home/g16/l1.exe "/home/masker/scratch/Gau-29388.inp" -scrdir="/home/masker/scratch/"
 Entering Link 1 = /home/g16/l1.exe PID=     29389.
  
 Copyright (c) 1988,1990,1992,1993,1995,1998,2003,2009,2016,
            Gaussian, Inc.  All Rights Reserved.
  
 This is part of the Gaussian(R) 16 program.  It is based on
 the Gaussian(R) 09 system (copyright 2009, Gaussian, Inc.),
 the Gaussian(R) 03 system (copyright 2003, Gaussian, Inc.),
 the Gaussian(R) 98 system (copyright 1998, Gaussian, Inc.),
 the Gaussian(R) 94 system (copyright 1995, Gaussian, Inc.),
 the Gaussian 92(TM) system (copyright 1992, Gaussian, Inc.),
 the Gaussian 90(TM) system (copyright 1990, Gaussian, Inc.),
 the Gaussian 88(TM) system (copyright 1988, Gaussian, Inc.),
 the Gaussian 86(TM) system (copyright 1986, Carnegie Mellon
 University), and the Gaussian 82(TM) system (copyright 1983,
 Carnegie Mellon University). Gaussian is a federally registered
 trademark of Gaussian, Inc.
  
 This software contains proprietary and confidential information,
 including trade secrets, belonging to Gaussian, Inc.
  
 This software is provided under written license and may be
 used, copied, transmitted, or stored only in accord with that
 written license.
  
 The following legend is applicable only to US Government
 contracts under FAR:
  
                    RESTRICTED RIGHTS LEGEND
  
 Use, reproduction and disclosure by the US Government is
 subject to restrictions as set forth in subparagraphs (a)
 and (c) of the Commercial Computer Software - Restricted
 Rights clause in FAR 52.227-19.
  
 Gaussian, Inc.
 340 Quinnipiac St., Bldg. 40, Wallingford CT 06492
  
  
 ---------------------------------------------------------------
 Warning -- This program may not be used in any manner that
 competes with the business of Gaussian, Inc. or will provide
 assistance to any competitor of Gaussian, Inc.  The licensee
 of this program is prohibited from giving any competitor of
 Gaussian, Inc. access to this program.  By using this program,
 the user acknowledges that Gaussian, Inc. is engaged in the
 business of creating and licensing software in the field of
 computational chemistry and represents and warrants to the
 licensee that it is not a competitor of Gaussian, Inc. and that
 it will not use this program in any manner prohibited above.
 ---------------------------------------------------------------
  

 Cite this work as:
 Gaussian 16, Revision A.03,
 M. J. Frisch, G. W. Trucks, H. B. Schlegel, G. E. Scuseria, 
 M. A. Robb, J. R. Cheeseman, G. Scalmani, V. Barone, 
 G. A. Petersson, H. Nakatsuji, X. Li, M. Caricato, A. V. Marenich, 
 J. Bloino, B. G. Janesko, R. Gomperts, B. Mennucci, H. P. Hratchian, 
 J. V. Ortiz, A. F. Izmaylov, J. L. Sonnenberg, D. Williams-Young, 
 F. Ding, F. Lipparini, F. Egidi, J. Goings, B. Peng, A. Petrone, 
 T. Henderson, D. Ranasinghe, V. G. Zakrzewski, J. Gao, N. Rega, 
 G. Zheng, W. Liang, M. Hada, M. Ehara, K. Toyota, R. Fukuda, 
 J. Hasegawa, M. Ishida, T. Nakajima, Y. Honda, O. Kitao, H. Nakai, 
 T. Vreven, K. Throssell, J. A. Montgomery, Jr., J. E. Peralta, 
 F. Ogliaro, M. J. Bearpark, J. J. Heyd, E. N. Brothers, K. N. Kudin, 
 V. N. Staroverov, T. A. Keith, R. Kobayashi, J. Normand, 
 K. Raghavachari, A. P. Rendell, J. C. Burant, S. S. Iyengar, 
 J. Tomasi, M. Cossi, J. M. Millam, M. Klene, C. Adamo, R. Cammi, 
 J. W. Ochterski, R. L. Martin, K. Morokuma, O. Farkas, 
 J. B. Foresman, and D. J. Fox, Gaussian, Inc., Wallingford CT, 2016.
 
 ******************************************
 Gaussian 16:  ES64L-G16RevA.03 25-Dec-2016
                 5-Sep-2018 
 ******************************************
 %nprocshared=8
 Will use up to    8 processors via shared memory.
 %mem=6GB
 %chk=ipr-c1-1sp.chk
 -----------------------------------------------------------
 #p b3lyp/6-311+g(2d,p) pop=(full,nboread) stable=opt g09def
 -----------------------------------------------------------
 1/38=1,158=3,167=1,172=1/1;
 2/12=2,17=6,18=5,40=1/2;
 3/5=4,6=6,7=112,11=2,25=1,27=10,30=1,74=-5,75=-4,158=3/1,2,3;
 4/60=-1/1;
 5/5=2,38=5,87=10/2;
 6/7=3,28=1,40=2,87=10/1,7;
 8/6=1,10=90,11=11,87=10/1;
 9/8=-3,42=1,46=1,87=10/14;
 5/5=2,8=3,17=40,38=5,87=10/8(-2);
 6/7=3,28=1,40=2,87=10/1,7;
 99/5=1,9=1/99;
 Using 2006 physical constants.
 Leave Link    1 at Wed Sep  5 16:48:22 2018, MaxMem=   805306368 cpu:               0.3 elap:               0.0
 (Enter /home/g16/l101.exe)
 ------------
 ipr-c1-1sp 1
 ------------
 Symbolic Z-matrix:
 Charge =  0 Multiplicity = 2
 C                     0.        0.53169  -0.05304 
 H                     0.00001   1.6055    0.12077 
 C                     1.30118  -0.19768   0.00372 
 H                     1.52828  -0.57029   1.02009 
 H                     1.29732  -1.08152  -0.65002 
 H                     2.14149   0.44004  -0.29362 
 C                    -1.30118  -0.19767   0.00372 
 H                    -1.29736  -1.08145  -0.65012 
 H                    -1.52821  -0.5704    1.02006 
 H                    -2.14151   0.44008  -0.2935 
 
 ITRead=  0  0  0  0  0  0  0  0  0  0
 MicOpt= -1 -1 -1 -1 -1 -1 -1 -1 -1 -1
 NAtoms=     10 NQM=       10 NQMF=       0 NMMI=      0 NMMIF=      0
                NMic=       0 NMicF=      0.
                    Isotopes and Nuclear Properties:
 (Nuclear quadrupole moments (NQMom) in fm**2, nuclear magnetic moments (NMagM)
  in nuclear magnetons)

  Atom         1           2           3           4           5           6           7           8           9          10
 IAtWgt=          12           1          12           1           1           1          12           1           1           1
 AtmWgt=  12.0000000   1.0078250  12.0000000   1.0078250   1.0078250   1.0078250  12.0000000   1.0078250   1.0078250   1.0078250
 NucSpn=           0           1           0           1           1           1           0           1           1           1
 AtZEff=  -0.0000000  -0.0000000  -0.0000000  -0.0000000  -0.0000000  -0.0000000  -0.0000000  -0.0000000  -0.0000000  -0.0000000
 NQMom=    0.0000000   0.0000000   0.0000000   0.0000000   0.0000000   0.0000000   0.0000000   0.0000000   0.0000000   0.0000000
 NMagM=    0.0000000   2.7928460   0.0000000   2.7928460   2.7928460   2.7928460   0.0000000   2.7928460   2.7928460   2.7928460
 AtZNuc=   6.0000000   1.0000000   6.0000000   1.0000000   1.0000000   1.0000000   6.0000000   1.0000000   1.0000000   1.0000000
 Leave Link  101 at Wed Sep  5 16:48:22 2018, MaxMem=   805306368 cpu:               0.3 elap:               0.0
 (Enter /home/g16/l202.exe)
                          Input orientation:                          
 ---------------------------------------------------------------------
 Center     Atomic      Atomic             Coordinates (Angstroms)
 Number     Number       Type             X           Y           Z
 ---------------------------------------------------------------------
      1          6           0        0.000000    0.531689   -0.053041
      2          1           0        0.000005    1.605495    0.120769
      3          6           0        1.301177   -0.197675    0.003716
      4          1           0        1.528275   -0.570287    1.020091
      5          1           0        1.297315   -1.081521   -0.650024
      6          1           0        2.141492    0.440039   -0.293624
      7          6           0       -1.301178   -0.197673    0.003716
      8          1           0       -1.297363   -1.081448   -0.650122
      9          1           0       -1.528211   -0.570403    1.020063
     10          1           0       -2.141507    0.440078   -0.293501
 ---------------------------------------------------------------------
                    Distance matrix (angstroms):
                    1          2          3          4          5
     1  C    0.000000
     2  H    1.087782   0.000000
     3  C    1.492734   2.226695   0.000000
     4  H    2.168315   2.806852   1.106088   0.000000
     5  H    2.154498   3.081751   1.099352   1.761814   0.000000
     6  H    2.156912   2.473050   1.096002   1.767100   1.776176
     7  C    1.492734   2.226700   2.602355   3.029466   2.821476
     8  H    2.154499   3.081736   2.821519   3.321916   2.594678
     9  H    2.168315   2.806903   3.029410   3.056486   3.321751
    10  H    2.156911   2.473033   3.513850   4.026619   3.777283
                    6          7          8          9         10
     6  H    0.000000
     7  C    3.513839   0.000000
     8  H    3.777266   1.099353   0.000000
     9  H    4.026597   1.106089   1.761810   0.000000
    10  H    4.282999   1.096001   1.776175   1.767103   0.000000
 Stoichiometry    C3H7(2)
 Framework group  C1[X(C3H7)]
 Deg. of freedom    24
 Full point group                 C1      NOp   1
 Largest Abelian subgroup         C1      NOp   1
 Largest concise Abelian subgroup C1      NOp   1
                         Standard orientation:                         
 ---------------------------------------------------------------------
 Center     Atomic      Atomic             Coordinates (Angstroms)
 Number     Number       Type             X           Y           Z
 ---------------------------------------------------------------------
      1          6           0        0.000000    0.531689   -0.053041
      2          1           0        0.000005    1.605495    0.120769
      3          6           0        1.301177   -0.197675    0.003716
      4          1           0        1.528275   -0.570287    1.020091
      5          1           0        1.297315   -1.081521   -0.650024
      6          1           0        2.141492    0.440039   -0.293624
      7          6           0       -1.301178   -0.197673    0.003716
      8          1           0       -1.297363   -1.081448   -0.650122
      9          1           0       -1.528211   -0.570403    1.020063
     10          1           0       -2.141507    0.440078   -0.293501
 ---------------------------------------------------------------------
 Rotational constants (GHZ):          37.4740025           8.2654824           7.3996498
 Leave Link  202 at Wed Sep  5 16:48:22 2018, MaxMem=   805306368 cpu:               0.0 elap:               0.0
 (Enter /home/g16/l301.exe)
 Standard basis: 6-311+G(2d,p) (5D, 7F)
 Ernie: Thresh=  0.10000D-02 Tol=  0.10000D-05 Strict=F.
 There are   129 symmetry adapted cartesian basis functions of A   symmetry.
 There are   123 symmetry adapted basis functions of A   symmetry.
   123 basis functions,   182 primitive gaussians,   129 cartesian basis functions
    13 alpha electrons       12 beta electrons
       nuclear repulsion energy        75.2066640016 Hartrees.
 IExCor=  402 DFT=T Ex+Corr=B3LYP ExCW=0 ScaHFX=  0.200000
 ScaDFX=  0.800000  0.720000  1.000000  0.810000 ScalE2=  1.000000  1.000000
 IRadAn=      4 IRanWt=     -1 IRanGd=            0 ICorTp=0 IEmpDi=  4
 NAtoms=   10 NActive=   10 NUniq=   10 SFac= 1.00D+00 NAtFMM=   60 NAOKFM=F Big=F
 Integral buffers will be    131072 words long.
 Raffenetti 2 integral format.
 Two-electron integral symmetry is turned on.
 Leave Link  301 at Wed Sep  5 16:48:22 2018, MaxMem=   805306368 cpu:               0.1 elap:               0.0
 (Enter /home/g16/l302.exe)
 NPDir=0 NMtPBC=     1 NCelOv=     1 NCel=       1 NClECP=     1 NCelD=      1
         NCelK=      1 NCelE2=     1 NClLst=     1 CellRange=     0.0.
 One-electron integrals computed using PRISM.
 One-electron integral symmetry used in STVInt
 NBasis=   123 RedAO= T EigKep=  1.62D-04  NBF=   123
 NBsUse=   123 1.00D-06 EigRej= -1.00D+00 NBFU=   123
 Precomputing XC quadrature grid using
 IXCGrd= 4 IRadAn=           4 IRanWt=          -1 IRanGd=           0 AccXCQ= 1.00D-10.
 Generated NRdTot=       0 NPtTot=           0 NUsed=           0 NTot=          32
 NSgBfM=   129   129   129   129   129 MxSgAt=    10 MxSgA2=    10.
 Leave Link  302 at Wed Sep  5 16:48:22 2018, MaxMem=   805306368 cpu:               0.7 elap:               0.1
 (Enter /home/g16/l303.exe)
 DipDrv:  MaxL=1.
 Leave Link  303 at Wed Sep  5 16:48:22 2018, MaxMem=   805306368 cpu:               0.1 elap:               0.0
 (Enter /home/g16/l401.exe)
 ExpMin= 4.38D-02 ExpMax= 4.56D+03 ExpMxC= 6.82D+02 IAcc=2 IRadAn=         4 AccDes= 0.00D+00
 Harris functional with IExCor=  402 and IRadAn=      -1 diagonalized for initial guess.
 HarFok:  IExCor=  402 AccDes= 0.00D+00 IRadAn=        -1 IDoV= 1 UseB2=F ITyADJ=14
 ICtDFT=  3500011 ScaDFX=  1.000000  1.000000  1.000000  1.000000
 FoFCou: FMM=F IPFlag=           0 FMFlag=      100000 FMFlg1=           0
         NFxFlg=           0 DoJE=T BraDBF=F KetDBF=T FulRan=T
         wScrn=  0.000000 ICntrl=       500 IOpCl=  0 I1Cent=   200000004 NGrid=           0
         NMat0=    1 NMatS0=      1 NMatT0=    0 NMatD0=    1 NMtDS0=    0 NMtDT0=    0
 Petite list used in FoFCou.
 Harris En= -118.551734651500    
 JPrj=0 DoOrth=F DoCkMO=F.
 Initial guess <Sx>= 0.0000 <Sy>= 0.0000 <Sz>= 0.5000 <S**2>= 0.7500 S= 0.5000
 Leave Link  401 at Wed Sep  5 16:48:22 2018, MaxMem=   805306368 cpu:               1.0 elap:               0.1
 (Enter /home/g16/l502.exe)
 Keep R1 and R2 ints in memory in canonical form, NReq=65779768.
 FoFCou: FMM=F IPFlag=           0 FMFlag=           0 FMFlg1=           0
         NFxFlg=           0 DoJE=F BraDBF=F KetDBF=F FulRan=T
         wScrn=  0.000000 ICntrl=       600 IOpCl=  0 I1Cent=           0 NGrid=           0
         NMat0=    1 NMatS0=   7626 NMatT0=    0 NMatD0=    1 NMtDS0=    0 NMtDT0=    0
 Symmetry not used in FoFCou.
 Two-electron integral symmetry not used.
 UHF open shell SCF:
 Using DIIS extrapolation, IDIIS=  1040.
 NGot=   805306368 LenX=   747107124 LenY=   747090042
 Requested convergence on RMS density matrix=1.00D-08 within 128 cycles.
 Requested convergence on MAX density matrix=1.00D-06.
 Requested convergence on             energy=1.00D-06.
 No special actions if energy rises.

 Cycle   1  Pass 1  IDiag  1:
 E= -118.363836168999    
 DIIS: error= 4.81D-02 at cycle   1 NSaved=   1.
 NSaved= 1 IEnMin= 1 EnMin= -118.363836168999     IErMin= 1 ErrMin= 4.81D-02
 ErrMax= 4.81D-02  0.00D+00 EMaxC= 1.00D-01 BMatC= 6.02D-01 BMatP= 6.02D-01
 IDIUse=3 WtCom= 5.19D-01 WtEn= 4.81D-01
 Coeff-Com:  0.100D+01
 Coeff-En:   0.100D+01
 Coeff:      0.100D+01
 Gap=     0.120 Goal=   None    Shift=    0.000
 Gap=     0.304 Goal=   None    Shift=    0.000
 GapD=    0.120 DampG=1.000 DampE=0.500 DampFc=0.5000 IDamp=-1.
 Damping current iteration by 5.00D-01
 RMSDP=6.16D-03 MaxDP=1.61D-01              OVMax= 1.96D-01

 Cycle   2  Pass 1  IDiag  1:
 E= -118.429055664465     Delta-E=       -0.065219495466 Rises=F Damp=T
 DIIS: error= 9.71D-03 at cycle   2 NSaved=   2.
 NSaved= 2 IEnMin= 2 EnMin= -118.429055664465     IErMin= 2 ErrMin= 9.71D-03
 ErrMax= 9.71D-03  0.00D+00 EMaxC= 1.00D-01 BMatC= 2.49D-02 BMatP= 6.02D-01
 IDIUse=3 WtCom= 9.03D-01 WtEn= 9.71D-02
 Coeff-Com:  0.730D-01 0.927D+00
 Coeff-En:   0.164D+00 0.836D+00
 Coeff:      0.819D-01 0.918D+00
 Gap=     0.198 Goal=   None    Shift=    0.000
 Gap=     0.352 Goal=   None    Shift=    0.000
 RMSDP=1.36D-03 MaxDP=5.91D-02 DE=-6.52D-02 OVMax= 1.35D-01

 Cycle   3  Pass 1  IDiag  1:
 E= -118.516871646504     Delta-E=       -0.087815982038 Rises=F Damp=F
 DIIS: error= 4.85D-03 at cycle   3 NSaved=   3.
 NSaved= 3 IEnMin= 3 EnMin= -118.516871646504     IErMin= 3 ErrMin= 4.85D-03
 ErrMax= 4.85D-03  0.00D+00 EMaxC= 1.00D-01 BMatC= 4.13D-03 BMatP= 2.49D-02
 IDIUse=3 WtCom= 9.52D-01 WtEn= 4.85D-02
 Coeff-Com: -0.153D-01 0.223D+00 0.792D+00
 Coeff-En:   0.000D+00 0.000D+00 0.100D+01
 Coeff:     -0.146D-01 0.212D+00 0.802D+00
 Gap=     0.191 Goal=   None    Shift=    0.000
 Gap=     0.300 Goal=   None    Shift=    0.000
 RMSDP=3.23D-04 MaxDP=8.83D-03 DE=-8.78D-02 OVMax= 1.80D-02

 Cycle   4  Pass 1  IDiag  1:
 E= -118.517732500830     Delta-E=       -0.000860854326 Rises=F Damp=F
 DIIS: error= 2.38D-03 at cycle   4 NSaved=   4.
 NSaved= 4 IEnMin= 4 EnMin= -118.517732500830     IErMin= 4 ErrMin= 2.38D-03
 ErrMax= 2.38D-03  0.00D+00 EMaxC= 1.00D-01 BMatC= 1.18D-03 BMatP= 4.13D-03
 IDIUse=3 WtCom= 9.76D-01 WtEn= 2.38D-02
 Coeff-Com: -0.128D-01 0.372D-01 0.377D+00 0.599D+00
 Coeff-En:   0.000D+00 0.000D+00 0.121D+00 0.879D+00
 Coeff:     -0.125D-01 0.363D-01 0.371D+00 0.605D+00
 Gap=     0.196 Goal=   None    Shift=    0.000
 Gap=     0.298 Goal=   None    Shift=    0.000
 RMSDP=1.39D-04 MaxDP=5.20D-03 DE=-8.61D-04 OVMax= 8.02D-03

 Cycle   5  Pass 1  IDiag  1:
 E= -118.518016131112     Delta-E=       -0.000283630282 Rises=F Damp=F
 DIIS: error= 5.26D-04 at cycle   5 NSaved=   5.
 NSaved= 5 IEnMin= 5 EnMin= -118.518016131112     IErMin= 5 ErrMin= 5.26D-04
 ErrMax= 5.26D-04  0.00D+00 EMaxC= 1.00D-01 BMatC= 6.20D-05 BMatP= 1.18D-03
 IDIUse=3 WtCom= 9.95D-01 WtEn= 5.26D-03
 Coeff-Com: -0.299D-02-0.610D-02 0.713D-01 0.226D+00 0.711D+00
 Coeff-En:   0.000D+00 0.000D+00 0.000D+00 0.000D+00 0.100D+01
 Coeff:     -0.298D-02-0.607D-02 0.710D-01 0.225D+00 0.713D+00
 Gap=     0.196 Goal=   None    Shift=    0.000
 Gap=     0.299 Goal=   None    Shift=    0.000
 RMSDP=2.74D-05 MaxDP=1.49D-03 DE=-2.84D-04 OVMax= 1.79D-03

 Cycle   6  Pass 1  IDiag  1:
 E= -118.518032932405     Delta-E=       -0.000016801293 Rises=F Damp=F
 DIIS: error= 1.15D-04 at cycle   6 NSaved=   6.
 NSaved= 6 IEnMin= 6 EnMin= -118.518032932405     IErMin= 6 ErrMin= 1.15D-04
 ErrMax= 1.15D-04  0.00D+00 EMaxC= 1.00D-01 BMatC= 2.90D-06 BMatP= 6.20D-05
 IDIUse=3 WtCom= 9.99D-01 WtEn= 1.15D-03
 Coeff-Com:  0.129D-02-0.461D-02-0.336D-01-0.481D-01 0.482D-01 0.104D+01
 Coeff-En:   0.000D+00 0.000D+00 0.000D+00 0.000D+00 0.000D+00 0.100D+01
 Coeff:      0.129D-02-0.461D-02-0.336D-01-0.480D-01 0.482D-01 0.104D+01
 Gap=     0.196 Goal=   None    Shift=    0.000
 Gap=     0.299 Goal=   None    Shift=    0.000
 RMSDP=1.57D-05 MaxDP=5.15D-04 DE=-1.68D-05 OVMax= 7.57D-04

 Cycle   7  Pass 1  IDiag  1:
 E= -118.518034483274     Delta-E=       -0.000001550869 Rises=F Damp=F
 DIIS: error= 4.39D-05 at cycle   7 NSaved=   7.
 NSaved= 7 IEnMin= 7 EnMin= -118.518034483274     IErMin= 7 ErrMin= 4.39D-05
 ErrMax= 4.39D-05  0.00D+00 EMaxC= 1.00D-01 BMatC= 3.57D-07 BMatP= 2.90D-06
 IDIUse=1 WtCom= 1.00D+00 WtEn= 0.00D+00
 Coeff-Com:  0.508D-03-0.246D-03-0.146D-01-0.332D-01-0.663D-01 0.249D+00
 Coeff-Com:  0.865D+00
 Coeff:      0.508D-03-0.246D-03-0.146D-01-0.332D-01-0.663D-01 0.249D+00
 Coeff:      0.865D+00
 Gap=     0.196 Goal=   None    Shift=    0.000
 Gap=     0.299 Goal=   None    Shift=    0.000
 RMSDP=5.44D-06 MaxDP=2.16D-04 DE=-1.55D-06 OVMax= 1.70D-04

 Cycle   8  Pass 1  IDiag  1:
 E= -118.518034644625     Delta-E=       -0.000000161350 Rises=F Damp=F
 DIIS: error= 8.52D-06 at cycle   8 NSaved=   8.
 NSaved= 8 IEnMin= 8 EnMin= -118.518034644625     IErMin= 8 ErrMin= 8.52D-06
 ErrMax= 8.52D-06  0.00D+00 EMaxC= 1.00D-01 BMatC= 1.38D-08 BMatP= 3.57D-07
 IDIUse=1 WtCom= 1.00D+00 WtEn= 0.00D+00
 Coeff-Com: -0.128D-03 0.395D-03 0.192D-02 0.294D-02-0.370D-02-0.710D-01
 Coeff-Com:  0.773D-03 0.107D+01
 Coeff:     -0.128D-03 0.395D-03 0.192D-02 0.294D-02-0.370D-02-0.710D-01
 Coeff:      0.773D-03 0.107D+01
 Gap=     0.196 Goal=   None    Shift=    0.000
 Gap=     0.299 Goal=   None    Shift=    0.000
 RMSDP=9.05D-07 MaxDP=2.19D-05 DE=-1.61D-07 OVMax= 4.88D-05

 Cycle   9  Pass 1  IDiag  1:
 E= -118.518034652941     Delta-E=       -0.000000008317 Rises=F Damp=F
 DIIS: error= 1.47D-06 at cycle   9 NSaved=   9.
 NSaved= 9 IEnMin= 9 EnMin= -118.518034652941     IErMin= 9 ErrMin= 1.47D-06
 ErrMax= 1.47D-06  0.00D+00 EMaxC= 1.00D-01 BMatC= 5.70D-10 BMatP= 1.38D-08
 IDIUse=1 WtCom= 1.00D+00 WtEn= 0.00D+00
 Coeff-Com: -0.262D-05-0.762D-05 0.474D-03 0.110D-02 0.257D-02-0.655D-02
 Coeff-Com: -0.349D-01-0.363D-01 0.107D+01
 Coeff:     -0.262D-05-0.762D-05 0.474D-03 0.110D-02 0.257D-02-0.655D-02
 Coeff:     -0.349D-01-0.363D-01 0.107D+01
 Gap=     0.196 Goal=   None    Shift=    0.000
 Gap=     0.299 Goal=   None    Shift=    0.000
 RMSDP=2.62D-07 MaxDP=6.86D-06 DE=-8.32D-09 OVMax= 1.06D-05

 Cycle  10  Pass 1  IDiag  1:
 E= -118.518034653297     Delta-E=       -0.000000000356 Rises=F Damp=F
 DIIS: error= 4.55D-07 at cycle  10 NSaved=  10.
 NSaved=10 IEnMin=10 EnMin= -118.518034653297     IErMin=10 ErrMin= 4.55D-07
 ErrMax= 4.55D-07  0.00D+00 EMaxC= 1.00D-01 BMatC= 5.85D-11 BMatP= 5.70D-10
 IDIUse=1 WtCom= 1.00D+00 WtEn= 0.00D+00
 Coeff-Com:  0.797D-05-0.242D-04-0.324D-04-0.815D-05 0.628D-03 0.251D-02
 Coeff-Com: -0.535D-02-0.614D-01 0.158D+00 0.905D+00
 Coeff:      0.797D-05-0.242D-04-0.324D-04-0.815D-05 0.628D-03 0.251D-02
 Coeff:     -0.535D-02-0.614D-01 0.158D+00 0.905D+00
 Gap=     0.196 Goal=   None    Shift=    0.000
 Gap=     0.299 Goal=   None    Shift=    0.000
 RMSDP=9.60D-08 MaxDP=4.79D-06 DE=-3.56D-10 OVMax= 2.78D-06

 Cycle  11  Pass 1  IDiag  1:
 E= -118.518034653324     Delta-E=       -0.000000000027 Rises=F Damp=F
 DIIS: error= 1.80D-07 at cycle  11 NSaved=  11.
 NSaved=11 IEnMin=11 EnMin= -118.518034653324     IErMin=11 ErrMin= 1.80D-07
 ErrMax= 1.80D-07  0.00D+00 EMaxC= 1.00D-01 BMatC= 8.53D-12 BMatP= 5.85D-11
 IDIUse=1 WtCom= 1.00D+00 WtEn= 0.00D+00
 Coeff-Com:  0.152D-05-0.416D-05-0.547D-04-0.107D-03-0.110D-03 0.116D-02
 Coeff-Com:  0.241D-02-0.839D-02-0.853D-01 0.206D+00 0.885D+00
 Coeff:      0.152D-05-0.416D-05-0.547D-04-0.107D-03-0.110D-03 0.116D-02
 Coeff:      0.241D-02-0.839D-02-0.853D-01 0.206D+00 0.885D+00
 Gap=     0.196 Goal=   None    Shift=    0.000
 Gap=     0.299 Goal=   None    Shift=    0.000
 RMSDP=2.92D-08 MaxDP=1.15D-06 DE=-2.72D-11 OVMax= 8.53D-07

 Cycle  12  Pass 1  IDiag  1:
 E= -118.518034653328     Delta-E=       -0.000000000003 Rises=F Damp=F
 DIIS: error= 3.68D-08 at cycle  12 NSaved=  12.
 NSaved=12 IEnMin=12 EnMin= -118.518034653328     IErMin=12 ErrMin= 3.68D-08
 ErrMax= 3.68D-08  0.00D+00 EMaxC= 1.00D-01 BMatC= 5.65D-13 BMatP= 8.53D-12
 IDIUse=1 WtCom= 1.00D+00 WtEn= 0.00D+00
 Coeff-Com: -0.710D-06 0.168D-05-0.553D-05-0.134D-04-0.768D-04-0.325D-04
 Coeff-Com:  0.808D-03 0.424D-02-0.271D-01-0.537D-01 0.142D+00 0.934D+00
 Coeff:     -0.710D-06 0.168D-05-0.553D-05-0.134D-04-0.768D-04-0.325D-04
 Coeff:      0.808D-03 0.424D-02-0.271D-01-0.537D-01 0.142D+00 0.934D+00
 Gap=     0.196 Goal=   None    Shift=    0.000
 Gap=     0.299 Goal=   None    Shift=    0.000
 RMSDP=6.10D-09 MaxDP=2.39D-07 DE=-3.47D-12 OVMax= 1.92D-07

 SCF Done:  E(UB3LYP) =  -118.518034653     A.U. after   12 cycles
            NFock= 12  Conv=0.61D-08     -V/T= 2.0055
 <Sx>= 0.0000 <Sy>= 0.0000 <Sz>= 0.5000 <S**2>= 0.7541 S= 0.5021
 <L.S>=  0.00000000000    
 KE= 1.178645383026D+02 PE=-4.243236581871D+02 EE= 1.127344212295D+02
 Annihilation of the first spin contaminant:
 S**2 before annihilation     0.7541,   after     0.7500
 Leave Link  502 at Wed Sep  5 16:48:25 2018, MaxMem=   805306368 cpu:              20.4 elap:               2.9
 (Enter /home/g16/l601.exe)
 Copying SCF densities to generalized density rwf, IOpCl= 1 IROHF=0.

 **********************************************************************

            Population analysis using the SCF density.

 **********************************************************************

 Orbital symmetries:
 Alpha Orbitals:
       Occupied  (A) (A) (A) (A) (A) (A) (A) (A) (A) (A) (A) (A)
                 (A)
       Virtual   (A) (A) (A) (A) (A) (A) (A) (A) (A) (A) (A) (A)
                 (A) (A) (A) (A) (A) (A) (A) (A) (A) (A) (A) (A)
                 (A) (A) (A) (A) (A) (A) (A) (A) (A) (A) (A) (A)
                 (A) (A) (A) (A) (A) (A) (A) (A) (A) (A) (A) (A)
                 (A) (A) (A) (A) (A) (A) (A) (A) (A) (A) (A) (A)
                 (A) (A) (A) (A) (A) (A) (A) (A) (A) (A) (A) (A)
                 (A) (A) (A) (A) (A) (A) (A) (A) (A) (A) (A) (A)
                 (A) (A) (A) (A) (A) (A) (A) (A) (A) (A) (A) (A)
                 (A) (A) (A) (A) (A) (A) (A) (A) (A) (A) (A) (A)
                 (A) (A)
 Beta  Orbitals:
       Occupied  (A) (A) (A) (A) (A) (A) (A) (A) (A) (A) (A) (A)
       Virtual   (A) (A) (A) (A) (A) (A) (A) (A) (A) (A) (A) (A)
                 (A) (A) (A) (A) (A) (A) (A) (A) (A) (A) (A) (A)
                 (A) (A) (A) (A) (A) (A) (A) (A) (A) (A) (A) (A)
                 (A) (A) (A) (A) (A) (A) (A) (A) (A) (A) (A) (A)
                 (A) (A) (A) (A) (A) (A) (A) (A) (A) (A) (A) (A)
                 (A) (A) (A) (A) (A) (A) (A) (A) (A) (A) (A) (A)
                 (A) (A) (A) (A) (A) (A) (A) (A) (A) (A) (A) (A)
                 (A) (A) (A) (A) (A) (A) (A) (A) (A) (A) (A) (A)
                 (A) (A) (A) (A) (A) (A) (A) (A) (A) (A) (A) (A)
                 (A) (A) (A)
 The electronic state is 2-A.
 Alpha  occ. eigenvalues --  -10.17580 -10.16393 -10.16392  -0.78365  -0.69315
 Alpha  occ. eigenvalues --   -0.57323  -0.45516  -0.43154  -0.41235  -0.38900
 Alpha  occ. eigenvalues --   -0.35931  -0.35176  -0.18846
 Alpha virt. eigenvalues --    0.00764   0.02789   0.03273   0.04671   0.06248
 Alpha virt. eigenvalues --    0.07182   0.07865   0.08497   0.10132   0.11415
 Alpha virt. eigenvalues --    0.12221   0.13540   0.15877   0.16604   0.19199
 Alpha virt. eigenvalues --    0.20863   0.21529   0.22659   0.25358   0.26482
 Alpha virt. eigenvalues --    0.29235   0.37944   0.41243   0.41883   0.44485
 Alpha virt. eigenvalues --    0.46510   0.48696   0.49479   0.55280   0.56767
 Alpha virt. eigenvalues --    0.56913   0.57924   0.59665   0.61395   0.62029
 Alpha virt. eigenvalues --    0.63718   0.64598   0.68081   0.72600   0.72889
 Alpha virt. eigenvalues --    0.81651   0.88737   0.89111   0.91484   1.00065
 Alpha virt. eigenvalues --    1.02022   1.07953   1.09846   1.14545   1.22906
 Alpha virt. eigenvalues --    1.23274   1.27340   1.28809   1.33797   1.34381
 Alpha virt. eigenvalues --    1.46662   1.46695   1.66064   1.70735   1.76447
 Alpha virt. eigenvalues --    1.81478   1.88902   1.91257   1.94897   2.07942
 Alpha virt. eigenvalues --    2.13414   2.17176   2.20303   2.22297   2.26516
 Alpha virt. eigenvalues --    2.32461   2.32550   2.34307   2.34322   2.48938
 Alpha virt. eigenvalues --    2.52068   2.60515   2.62554   2.63527   2.66524
 Alpha virt. eigenvalues --    2.74410   2.79089   2.79358   2.86264   3.06517
 Alpha virt. eigenvalues --    3.09403   3.13335   3.17887   3.21897   3.26526
 Alpha virt. eigenvalues --    3.36627   3.36940   3.38602   3.48795   3.49082
 Alpha virt. eigenvalues --    3.50121   3.53221   3.54878   3.63809   3.66926
 Alpha virt. eigenvalues --    3.79928   4.16872   4.20480   4.22348   4.26667
 Alpha virt. eigenvalues --    4.38268   4.58996  23.78941  23.95343  24.02750
  Beta  occ. eigenvalues --  -10.16477 -10.16477 -10.16183  -0.76679  -0.69072
  Beta  occ. eigenvalues --   -0.55242  -0.45027  -0.41444  -0.40665  -0.38247
  Beta  occ. eigenvalues --   -0.35555  -0.34662
  Beta virt. eigenvalues --   -0.04777   0.00822   0.02800   0.03421   0.04720
  Beta virt. eigenvalues --    0.06287   0.07151   0.07800   0.08638   0.10830
  Beta virt. eigenvalues --    0.11397   0.13290   0.13549   0.15983   0.16890
  Beta virt. eigenvalues --    0.19601   0.20894   0.22558   0.23165   0.25655
  Beta virt. eigenvalues --    0.27418   0.29682   0.38031   0.41493   0.42487
  Beta virt. eigenvalues --    0.44730   0.46834   0.48816   0.51110   0.57198
  Beta virt. eigenvalues --    0.57466   0.58294   0.58582   0.61887   0.62142
  Beta virt. eigenvalues --    0.62507   0.64548   0.65176   0.68885   0.73020
  Beta virt. eigenvalues --    0.74084   0.82676   0.88725   0.89953   0.91597
  Beta virt. eigenvalues --    1.00803   1.03345   1.08599   1.10060   1.15857
  Beta virt. eigenvalues --    1.24163   1.24967   1.28099   1.29055   1.34392
  Beta virt. eigenvalues --    1.35675   1.47168   1.47188   1.66577   1.71664
  Beta virt. eigenvalues --    1.76852   1.81778   1.89671   1.91844   1.95517
  Beta virt. eigenvalues --    2.08281   2.14270   2.17629   2.20816   2.22457
  Beta virt. eigenvalues --    2.27349   2.32990   2.33259   2.34966   2.35153
  Beta virt. eigenvalues --    2.49571   2.52422   2.60891   2.63166   2.64212
  Beta virt. eigenvalues --    2.66972   2.75042   2.79819   2.80030   2.91149
  Beta virt. eigenvalues --    3.06951   3.09642   3.16230   3.18059   3.23458
  Beta virt. eigenvalues --    3.27969   3.37240   3.37779   3.39291   3.48812
  Beta virt. eigenvalues --    3.49883   3.54304   3.55660   3.56134   3.65555
  Beta virt. eigenvalues --    3.68024   3.83882   4.17019   4.20734   4.22297
  Beta virt. eigenvalues --    4.26659   4.39447   4.59918  23.80523  23.95289
  Beta virt. eigenvalues --   24.02669
     Alpha Molecular Orbital Coefficients:
                           1         2         3         4         5
                           O         O         O         O         O
     Eigenvalues --   -10.17580 -10.16393 -10.16392  -0.78365  -0.69315
   1 1   C  1S          0.56258  -0.00007  -0.00949  -0.08098  -0.00000
   2        2S          0.46339  -0.00006  -0.00787  -0.12620  -0.00000
   3        2PX        -0.00000  -0.00068   0.00000   0.00000   0.07430
   4        2PY        -0.00026  -0.00000  -0.00044  -0.02211   0.00000
   5        2PZ        -0.00001  -0.00000  -0.00000   0.00498   0.00000
   6        3S          0.01951   0.00001   0.00101   0.33357   0.00000
   7        3PX         0.00000   0.00110  -0.00001   0.00000   0.11168
   8        3PY         0.00148   0.00001   0.00125  -0.03902   0.00000
   9        3PZ         0.00064   0.00000   0.00011   0.00604   0.00000
  10        4S         -0.00533   0.00001   0.00180   0.19193   0.00000
  11        4PX        -0.00000   0.00035  -0.00000   0.00000   0.05323
  12        4PY         0.00229  -0.00001  -0.00092  -0.01545  -0.00000
  13        4PZ        -0.00047   0.00000   0.00025   0.00286  -0.00000
  14        5S          0.01862   0.00008   0.01122  -0.11962   0.00000
  15        5PX        -0.00000  -0.00274   0.00002   0.00000  -0.03912
  16        5PY        -0.00560  -0.00001  -0.00192   0.02789  -0.00000
  17        5PZ        -0.00007  -0.00000  -0.00019  -0.00030  -0.00000
  18        6D 0       -0.00011  -0.00000  -0.00005  -0.00339  -0.00000
  19        6D+1        0.00000  -0.00001   0.00000  -0.00000   0.00062
  20        6D-1        0.00001   0.00000   0.00001  -0.00024  -0.00000
  21        6D+2       -0.00014   0.00000   0.00010   0.00303  -0.00000
  22        6D-2        0.00000   0.00023  -0.00000   0.00000  -0.00761
  23        7D 0       -0.00128   0.00000   0.00061  -0.00070  -0.00000
  24        7D+1       -0.00000   0.00005  -0.00000   0.00000   0.00124
  25        7D-1        0.00093   0.00000   0.00027  -0.00188   0.00000
  26        7D+2       -0.00201  -0.00002  -0.00254   0.00663  -0.00000
  27        7D-2        0.00000  -0.00342   0.00002  -0.00000  -0.00973
  28 2   H  1S          0.00012  -0.00000  -0.00028   0.04688   0.00000
  29        2S         -0.00672  -0.00001  -0.00190   0.05732   0.00000
  30        3S          0.00336   0.00001   0.00088  -0.00485   0.00000
  31        4PX         0.00000   0.00073  -0.00001  -0.00000   0.00264
  32        4PY         0.00272   0.00000   0.00056  -0.01090  -0.00000
  33        4PZ         0.00042   0.00000   0.00007  -0.00124  -0.00000
  34 3   C  1S          0.00669  -0.39522   0.40088  -0.06293  -0.07788
  35        2S          0.00548  -0.32509   0.32982  -0.09716  -0.12084
  36        2PX        -0.00055  -0.00003  -0.00020  -0.02484   0.00884
  37        2PY         0.00026  -0.00014  -0.00003   0.01052   0.00177
  38        2PZ        -0.00010   0.00005   0.00002  -0.00036   0.00035
  39        3S          0.00098  -0.01432   0.01381   0.25252   0.31883
  40        3PX         0.00148   0.00033   0.00118  -0.04115   0.00659
  41        3PY        -0.00053   0.00062  -0.00000   0.01763   0.00530
  42        3PZ         0.00046  -0.00032  -0.00007  -0.00100   0.00066
  43        4S          0.00120   0.00492  -0.00529   0.12489   0.17805
  44        4PX         0.00084  -0.00091   0.00119  -0.00822   0.01338
  45        4PY        -0.00112   0.00118   0.00012   0.00457  -0.00552
  46        4PZ         0.00103  -0.00060  -0.00006  -0.00151   0.00158
  47        5S         -0.00954   0.00668  -0.00807   0.06952   0.08378
  48        5PX         0.00223  -0.00051   0.00091  -0.01299  -0.01230
  49        5PY        -0.00030   0.00021  -0.00055   0.00378   0.00964
  50        5PZ         0.00019   0.00024   0.00026  -0.00094  -0.00023
  51        6D 0       -0.00005   0.00014   0.00004  -0.00228  -0.00047
  52        6D+1        0.00002  -0.00002  -0.00001   0.00019   0.00003
  53        6D-1       -0.00000  -0.00000   0.00003  -0.00003  -0.00021
  54        6D+2       -0.00006  -0.00001  -0.00002   0.00231  -0.00034
  55        6D-2        0.00002   0.00000   0.00008  -0.00302  -0.00065
  56        7D 0        0.00172  -0.00136   0.00009  -0.00489   0.00012
  57        7D+1       -0.00026  -0.00024  -0.00014   0.00011   0.00015
  58        7D-1       -0.00032   0.00005  -0.00020   0.00068   0.00001
  59        7D+2       -0.00087  -0.00016  -0.00103   0.00415  -0.00143
  60        7D-2        0.00112  -0.00030   0.00040  -0.00353  -0.00196
  61 4   H  1S         -0.00016  -0.00007   0.00020   0.03978   0.06215
  62        2S         -0.00197   0.00336  -0.00240   0.05025   0.07717
  63        3S         -0.00022  -0.00256   0.00235  -0.00367  -0.00325
  64        4PX         0.00014  -0.00024   0.00024  -0.00260  -0.00175
  65        4PY        -0.00015   0.00060  -0.00035   0.00309   0.00404
  66        4PZ         0.00042  -0.00144   0.00138  -0.00793  -0.01128
  67 5   H  1S         -0.00003  -0.00013   0.00022   0.04024   0.05967
  68        2S         -0.00061   0.00214  -0.00267   0.04872   0.07342
  69        3S          0.00006  -0.00218   0.00271  -0.00395  -0.00276
  70        4PX        -0.00014   0.00010  -0.00013  -0.00093   0.00065
  71        4PY        -0.00015   0.00122  -0.00110   0.00703   0.00961
  72        4PZ        -0.00004   0.00069  -0.00099   0.00489   0.00708
  73 6   H  1S         -0.00007  -0.00023   0.00014   0.03774   0.06520
  74        2S         -0.00061   0.00141  -0.00304   0.04480   0.08209
  75        3S          0.00028  -0.00202   0.00272  -0.00538  -0.00293
  76        4PX         0.00020  -0.00077   0.00129  -0.00703  -0.00978
  77        4PY         0.00018  -0.00088   0.00086  -0.00402  -0.00771
  78        4PZ         0.00005   0.00027  -0.00042   0.00192   0.00375
  79 7   C  1S          0.00669   0.40094   0.39516  -0.06293   0.07788
  80        2S          0.00548   0.32979   0.32512  -0.09716   0.12084
  81        2PX         0.00055  -0.00002   0.00020   0.02484   0.00884
  82        2PY         0.00026   0.00014  -0.00003   0.01052  -0.00177
  83        2PZ        -0.00010  -0.00005   0.00002  -0.00036  -0.00035
  84        3S          0.00098   0.01451   0.01360   0.25252  -0.31883
  85        3PX        -0.00148   0.00031  -0.00119   0.04115   0.00659
  86        3PY        -0.00053  -0.00062   0.00001   0.01763  -0.00530
  87        3PZ         0.00046   0.00032  -0.00008  -0.00100  -0.00066
  88        4S          0.00120  -0.00499  -0.00522   0.12489  -0.17806
  89        4PX        -0.00084  -0.00092  -0.00117   0.00822   0.01338
  90        4PY        -0.00112  -0.00118   0.00014   0.00457   0.00552
  91        4PZ         0.00103   0.00060  -0.00006  -0.00151  -0.00158
  92        5S         -0.00954  -0.00679  -0.00798   0.06952  -0.08378
  93        5PX        -0.00223  -0.00053  -0.00090   0.01299  -0.01230
  94        5PY        -0.00030  -0.00022  -0.00054   0.00378  -0.00964
  95        5PZ         0.00019  -0.00023   0.00026  -0.00094   0.00023
  96        6D 0       -0.00005  -0.00014   0.00004  -0.00228   0.00047
  97        6D+1       -0.00002  -0.00002   0.00001  -0.00019   0.00003
  98        6D-1       -0.00000   0.00000   0.00003  -0.00003   0.00021
  99        6D+2       -0.00006   0.00001  -0.00002   0.00231   0.00034
 100        6D-2       -0.00002  -0.00000  -0.00008   0.00302  -0.00065
 101        7D 0        0.00172   0.00136   0.00007  -0.00488  -0.00012
 102        7D+1        0.00026  -0.00023   0.00015  -0.00011   0.00015
 103        7D-1       -0.00032  -0.00005  -0.00020   0.00068  -0.00001
 104        7D+2       -0.00087   0.00014  -0.00103   0.00415   0.00143
 105        7D-2       -0.00112  -0.00031  -0.00040   0.00353  -0.00196
 106 8   H  1S         -0.00003   0.00013   0.00021   0.04024  -0.05967
 107        2S         -0.00061  -0.00218  -0.00264   0.04872  -0.07342
 108        3S          0.00007   0.00222   0.00268  -0.00395   0.00276
 109        4PX         0.00014   0.00010   0.00012   0.00093   0.00065
 110        4PY        -0.00015  -0.00123  -0.00108   0.00703  -0.00961
 111        4PZ        -0.00004  -0.00071  -0.00098   0.00489  -0.00708
 112 9   H  1S         -0.00016   0.00007   0.00019   0.03978  -0.06215
 113        2S         -0.00197  -0.00339  -0.00235   0.05025  -0.07717
 114        3S         -0.00022   0.00259   0.00231  -0.00367   0.00325
 115        4PX        -0.00014  -0.00024  -0.00023   0.00260  -0.00175
 116        4PY        -0.00015  -0.00061  -0.00035   0.00309  -0.00404
 117        4PZ         0.00042   0.00146   0.00136  -0.00793   0.01128
 118 10  H  1S         -0.00007   0.00023   0.00014   0.03774  -0.06520
 119        2S         -0.00061  -0.00145  -0.00302   0.04480  -0.08209
 120        3S          0.00028   0.00206   0.00269  -0.00538   0.00293
 121        4PX        -0.00020  -0.00079  -0.00128   0.00703  -0.00978
 122        4PY         0.00018   0.00089   0.00084  -0.00402   0.00771
 123        4PZ         0.00005  -0.00028  -0.00042   0.00192  -0.00375
                           6         7         8         9        10
                           O         O         O         O         O
     Eigenvalues --    -0.57323  -0.45516  -0.43154  -0.41235  -0.38900
   1 1   C  1S         -0.07635   0.01440   0.00095   0.00000   0.00000
   2        2S         -0.12038   0.02331   0.00155   0.00000   0.00000
   3        2PX         0.00000   0.00000  -0.00000  -0.13052  -0.01439
   4        2PY         0.05995   0.13153  -0.02047  -0.00000  -0.00000
   5        2PZ         0.00764   0.02144   0.09466   0.00000   0.00000
   6        3S          0.33120  -0.06995  -0.00353  -0.00000  -0.00000
   7        3PX         0.00000   0.00000  -0.00000  -0.19292  -0.02177
   8        3PY         0.07728   0.18742  -0.03223  -0.00000  -0.00000
   9        3PZ         0.00864   0.03181   0.14985   0.00000   0.00000
  10        4S          0.21745  -0.03081  -0.01560   0.00000  -0.00000
  11        4PX         0.00000  -0.00000  -0.00000  -0.09072  -0.01297
  12        4PY         0.04550   0.10168  -0.02814  -0.00000   0.00000
  13        4PZ         0.00480   0.01878   0.09559  -0.00000   0.00000
  14        5S          0.06158  -0.00136   0.06392  -0.00001  -0.00001
  15        5PX        -0.00000  -0.00000  -0.00000  -0.03602   0.00570
  16        5PY         0.00654   0.00318  -0.01369   0.00000   0.00000
  17        5PZ         0.00315  -0.00031  -0.00678  -0.00000  -0.00000
  18        6D 0       -0.00050   0.00032   0.00034  -0.00000  -0.00000
  19        6D+1        0.00000   0.00000   0.00000   0.00053  -0.00819
  20        6D-1        0.00113   0.00101  -0.00451  -0.00000  -0.00000
  21        6D+2       -0.00334  -0.00213  -0.00055   0.00000   0.00000
  22        6D-2        0.00000   0.00000  -0.00000   0.00422  -0.00008
  23        7D 0        0.00791   0.00054   0.00525  -0.00000  -0.00000
  24        7D+1       -0.00000  -0.00000   0.00000   0.00225  -0.02112
  25        7D-1       -0.00149  -0.00184  -0.01106   0.00000  -0.00000
  26        7D+2        0.00217   0.01823  -0.00207  -0.00000   0.00000
  27        7D-2       -0.00000  -0.00000  -0.00000  -0.00691  -0.00090
  28 2   H  1S          0.10942   0.08505  -0.00649  -0.00000  -0.00000
  29        2S          0.14730   0.12635  -0.00127  -0.00000  -0.00000
  30        3S          0.01037   0.03190  -0.00259   0.00000  -0.00000
  31        4PX        -0.00000  -0.00000  -0.00000  -0.00641  -0.00017
  32        4PY        -0.01882  -0.00999  -0.00130   0.00000   0.00000
  33        4PZ        -0.00249  -0.00107   0.00610   0.00000   0.00000
  34 3   C  1S          0.03967  -0.00545   0.00114   0.00028  -0.00086
  35        2S          0.06184  -0.00837   0.00172   0.00063  -0.00136
  36        2PX        -0.05710   0.11011  -0.02454   0.03208   0.00501
  37        2PY         0.05100   0.05667  -0.01387  -0.14002  -0.02625
  38        2PZ        -0.00139   0.02540   0.13094   0.02468  -0.14520
  39        3S         -0.16456   0.01910  -0.00382  -0.00544   0.00397
  40        3PX        -0.08022   0.15685  -0.03506   0.04971   0.00635
  41        3PY         0.07058   0.07489  -0.01897  -0.19721  -0.03730
  42        3PZ        -0.00248   0.03485   0.18155   0.03409  -0.20070
  43        4S         -0.11822   0.02521  -0.00543   0.00083   0.00507
  44        4PX        -0.04497   0.09334  -0.01759   0.03454   0.00574
  45        4PY         0.03899   0.04280  -0.01007  -0.13264  -0.02598
  46        4PZ        -0.00373   0.02178   0.11189   0.02133  -0.13247
  47        5S         -0.03711   0.00806  -0.03017   0.08890  -0.00737
  48        5PX         0.00609   0.00367   0.00584  -0.02364   0.00164
  49        5PY        -0.00578   0.00614  -0.00443  -0.00308  -0.00329
  50        5PZ        -0.00082   0.00225   0.01480   0.00191  -0.01469
  51        6D 0       -0.00349   0.00115   0.00526   0.00717  -0.00535
  52        6D+1       -0.00015  -0.00234   0.00029   0.00215  -0.00272
  53        6D-1       -0.00058  -0.00416  -0.00385   0.00311   0.00772
  54        6D+2        0.00233  -0.00246   0.00186  -0.00463  -0.00253
  55        6D-2       -0.00538   0.00498  -0.00330   0.00169   0.00261
  56        7D 0       -0.00498   0.00207   0.00068   0.00503  -0.00157
  57        7D+1        0.00050  -0.00210  -0.00517   0.00092  -0.00429
  58        7D-1        0.00084   0.00022   0.00135   0.00098   0.00552
  59        7D+2        0.00111  -0.00512  -0.00005  -0.00194  -0.00172
  60        7D-2       -0.00692   0.00379  -0.00112   0.00439   0.00022
  61 4   H  1S         -0.05752   0.02844   0.10189   0.06681  -0.11345
  62        2S         -0.07315   0.03891   0.15037   0.09700  -0.16912
  63        3S         -0.00842   0.01164   0.04987   0.03173  -0.07626
  64        4PX        -0.00086   0.00545  -0.00531  -0.00043   0.00374
  65        4PY        -0.00078   0.00493   0.00520  -0.00440  -0.00835
  66        4PZ         0.00949  -0.00300  -0.00953  -0.00913   0.00945
  67 5   H  1S         -0.06385  -0.04385  -0.05864   0.08261   0.09713
  68        2S         -0.08413  -0.06537  -0.08672   0.11724   0.14086
  69        3S         -0.00974  -0.02045  -0.03128   0.03610   0.06255
  70        4PX        -0.00214   0.00724  -0.00104   0.00227   0.00087
  71        4PY        -0.00710  -0.00384  -0.00973   0.00356   0.01223
  72        4PZ        -0.00744  -0.00394   0.00137   0.01014   0.00135
  73 6   H  1S         -0.04577   0.09423  -0.05322  -0.05552   0.02679
  74        2S         -0.05790   0.13068  -0.07813  -0.08105   0.04136
  75        3S         -0.00772   0.04176  -0.02696  -0.03281   0.01634
  76        4PX         0.00326  -0.00770   0.00646   0.00987  -0.00367
  77        4PY         0.00736  -0.00588   0.00478  -0.00214  -0.00448
  78        4PZ        -0.00244   0.00604   0.00520  -0.00139  -0.00779
  79 7   C  1S          0.03967  -0.00545   0.00114  -0.00028   0.00086
  80        2S          0.06184  -0.00837   0.00172  -0.00063   0.00136
  81        2PX         0.05710  -0.11011   0.02454   0.03208   0.00501
  82        2PY         0.05100   0.05667  -0.01387   0.14002   0.02625
  83        2PZ        -0.00139   0.02540   0.13094  -0.02468   0.14520
  84        3S         -0.16456   0.01910  -0.00382   0.00544  -0.00396
  85        3PX         0.08022  -0.15685   0.03506   0.04971   0.00635
  86        3PY         0.07058   0.07489  -0.01897   0.19721   0.03730
  87        3PZ        -0.00248   0.03485   0.18155  -0.03409   0.20070
  88        4S         -0.11822   0.02521  -0.00543  -0.00083  -0.00506
  89        4PX         0.04497  -0.09334   0.01759   0.03454   0.00575
  90        4PY         0.03899   0.04280  -0.01007   0.13264   0.02598
  91        4PZ        -0.00373   0.02178   0.11189  -0.02132   0.13247
  92        5S         -0.03711   0.00805  -0.03019  -0.08889   0.00738
  93        5PX        -0.00610  -0.00368  -0.00584  -0.02363   0.00164
  94        5PY        -0.00578   0.00614  -0.00444   0.00308   0.00329
  95        5PZ        -0.00082   0.00225   0.01480  -0.00191   0.01468
  96        6D 0       -0.00349   0.00115   0.00526  -0.00717   0.00535
  97        6D+1        0.00015   0.00234  -0.00029   0.00215  -0.00272
  98        6D-1       -0.00058  -0.00416  -0.00385  -0.00311  -0.00773
  99        6D+2        0.00233  -0.00246   0.00186   0.00463   0.00253
 100        6D-2        0.00538  -0.00498   0.00330   0.00169   0.00261
 101        7D 0       -0.00498   0.00207   0.00068  -0.00503   0.00157
 102        7D+1       -0.00050   0.00210   0.00517   0.00092  -0.00429
 103        7D-1        0.00084   0.00022   0.00134  -0.00098  -0.00552
 104        7D+2        0.00111  -0.00512  -0.00005   0.00194   0.00172
 105        7D-2        0.00692  -0.00379   0.00112   0.00439   0.00022
 106 8   H  1S         -0.06385  -0.04385  -0.05865  -0.08260  -0.09714
 107        2S         -0.08413  -0.06536  -0.08673  -0.11723  -0.14088
 108        3S         -0.00974  -0.02045  -0.03129  -0.03610  -0.06256
 109        4PX         0.00214  -0.00724   0.00104   0.00227   0.00087
 110        4PY        -0.00710  -0.00384  -0.00973  -0.00356  -0.01223
 111        4PZ        -0.00744  -0.00394   0.00137  -0.01014  -0.00136
 112 9   H  1S         -0.05752   0.02843   0.10189  -0.06682   0.11344
 113        2S         -0.07315   0.03889   0.15037  -0.09702   0.16911
 114        3S         -0.00842   0.01164   0.04987  -0.03174   0.07626
 115        4PX         0.00086  -0.00545   0.00530  -0.00042   0.00374
 116        4PY        -0.00078   0.00493   0.00520   0.00440   0.00835
 117        4PZ         0.00949  -0.00300  -0.00953   0.00913  -0.00945
 118 10  H  1S         -0.04577   0.09423  -0.05321   0.05552  -0.02678
 119        2S         -0.05790   0.13069  -0.07812   0.08106  -0.04133
 120        3S         -0.00772   0.04176  -0.02695   0.03281  -0.01633
 121        4PX        -0.00326   0.00770  -0.00646   0.00987  -0.00367
 122        4PY         0.00736  -0.00588   0.00478   0.00214   0.00448
 123        4PZ        -0.00244   0.00603   0.00520   0.00139   0.00779
                          11        12        13        14        15
                           O         O         O         V         V
     Eigenvalues --    -0.35931  -0.35176  -0.18846   0.00764   0.02789
   1 1   C  1S         -0.00000   0.00407   0.00853  -0.00846   0.00000
   2        2S         -0.00000   0.00692   0.01401  -0.01447   0.00000
   3        2PX        -0.13859  -0.00000  -0.00000   0.00000   0.03381
   4        2PY        -0.00000   0.14745  -0.02161   0.04106  -0.00000
   5        2PZ        -0.00000   0.01077   0.25755  -0.00462  -0.00000
   6        3S          0.00000  -0.02297  -0.04249   0.04814  -0.00000
   7        3PX        -0.20393  -0.00001  -0.00000   0.00000   0.02795
   8        3PY        -0.00001   0.20650  -0.03220   0.06492  -0.00000
   9        3PZ        -0.00000   0.01375   0.39452  -0.00248  -0.00000
  10        4S          0.00000  -0.02614  -0.07118   0.27700  -0.00001
  11        4PX        -0.14006  -0.00000  -0.00000  -0.00000  -0.15513
  12        4PY        -0.00000   0.14780  -0.04332   0.03468  -0.00000
  13        4PZ        -0.00000   0.01099   0.43532  -0.03277  -0.00000
  14        5S          0.00001  -0.00675  -0.16248   4.37487  -0.00002
  15        5PX        -0.00152   0.00000   0.00001   0.00003   2.01567
  16        5PY        -0.00000   0.02512   0.01133  -1.24635   0.00002
  17        5PZ        -0.00000   0.00439   0.18243  -0.03766   0.00000
  18        6D 0        0.00000   0.00052  -0.00253  -0.00289  -0.00000
  19        6D+1       -0.00108  -0.00000  -0.00000   0.00000  -0.00003
  20        6D-1       -0.00000   0.00290   0.00159  -0.00029   0.00000
  21        6D+2        0.00000  -0.01578   0.00015   0.00074  -0.00000
  22        6D-2        0.01340   0.00000   0.00000   0.00000   0.00039
  23        7D 0        0.00000   0.00682  -0.00757  -0.02114   0.00000
  24        7D+1       -0.00332   0.00000  -0.00000  -0.00000  -0.00346
  25        7D-1       -0.00000   0.00640   0.01654   0.00871  -0.00000
  26        7D+2        0.00000  -0.02845   0.00097  -0.00152   0.00000
  27        7D-2        0.02586   0.00000   0.00000   0.00000   0.04672
  28 2   H  1S         -0.00000   0.13484   0.01238   0.02286   0.00000
  29        2S         -0.00000   0.19376   0.01809  -0.04043   0.00000
  30        3S         -0.00000   0.10237   0.03003   0.27438  -0.00001
  31        4PX        -0.00736  -0.00000   0.00000   0.00000   0.00684
  32        4PY         0.00000  -0.01251  -0.00254  -0.00503  -0.00000
  33        4PZ         0.00000  -0.00248   0.02024  -0.00233   0.00000
  34 3   C  1S          0.01004   0.00893  -0.00329  -0.02687   0.02453
  35        2S          0.01612   0.01433  -0.00527  -0.04434   0.04031
  36        2PX         0.15061   0.01717  -0.00617   0.02864  -0.03606
  37        2PY         0.03145  -0.12045   0.00880  -0.02026   0.00255
  38        2PZ        -0.00047  -0.00556  -0.04329   0.00306  -0.00243
  39        3S         -0.04737  -0.04258   0.01537   0.14021  -0.13016
  40        3PX         0.21003   0.02942  -0.00925   0.05251  -0.07293
  41        3PY         0.03936  -0.16150   0.01231  -0.03029   0.00271
  42        3PZ        -0.00051  -0.00805  -0.04973   0.00489  -0.00187
  43        4S         -0.01564  -0.01628   0.01515   0.26736  -0.15031
  44        4PX         0.14441   0.00939  -0.00319   0.11453  -0.19668
  45        4PY         0.03778  -0.11535   0.01359  -0.07792   0.09299
  46        4PZ        -0.00273  -0.00742  -0.04309   0.05035  -0.02285
  47        5S         -0.01255   0.01318   0.06737  -3.50000  -2.79740
  48        5PX         0.01977  -0.00469  -0.01692   0.44531   1.47616
  49        5PY         0.00746  -0.01686   0.01339  -0.07732  -0.55009
  50        5PZ        -0.00037  -0.00131  -0.07057   0.06283   0.05212
  51        6D 0        0.00031   0.00493  -0.00560  -0.00065   0.00023
  52        6D+1       -0.00285   0.00142  -0.01113   0.00110   0.00077
  53        6D-1       -0.00369   0.00500   0.01013   0.00041   0.00096
  54        6D+2        0.00161  -0.00880  -0.00006  -0.00084  -0.00082
  55        6D-2        0.01101  -0.00186   0.00201  -0.00264  -0.00224
  56        7D 0        0.00022  -0.00166  -0.00425   0.01161  -0.01301
  57        7D+1       -0.00074  -0.00111  -0.02840  -0.00282   0.00469
  58        7D-1       -0.00015   0.00186   0.01763  -0.00476   0.00505
  59        7D+2        0.00547  -0.01412   0.00223  -0.01013   0.00935
  60        7D-2        0.00906  -0.00318   0.00259   0.00315  -0.03129
  61 4   H  1S          0.00599   0.02745  -0.07780   0.01114  -0.00386
  62        2S          0.00935   0.04362  -0.13902  -0.06831   0.03706
  63        3S          0.00518   0.01910  -0.15562   0.20037  -0.00646
  64        4PX         0.00846  -0.00012   0.00042   0.00242   0.00408
  65        4PY         0.00221  -0.00557  -0.00133   0.00172  -0.00323
  66        4PZ        -0.00083  -0.00472   0.00570  -0.00788   0.00668
  67 5   H  1S         -0.03633   0.09065   0.04465   0.01281   0.00379
  68        2S         -0.05573   0.13590   0.08220  -0.04201   0.03616
  69        3S         -0.02494   0.07512   0.08900   0.26352   0.03132
  70        4PX         0.00841  -0.00005  -0.00034   0.00208   0.00274
  71        4PY        -0.00366   0.00465   0.00443   0.00808  -0.00659
  72        4PZ        -0.00405   0.00807   0.00083   0.00624  -0.00359
  73 6   H  1S          0.11648  -0.06559   0.02769  -0.00231  -0.02173
  74        2S          0.17150  -0.10250   0.04692  -0.08396   0.04989
  75        3S          0.08315  -0.05115   0.04653   0.25679  -0.26354
  76        4PX        -0.00621   0.01031  -0.00243  -0.00507   0.00580
  77        4PY        -0.00910  -0.00008  -0.00162  -0.00624   0.00497
  78        4PZ         0.00520  -0.00381  -0.00117   0.00290  -0.00164
  79 7   C  1S         -0.01004   0.00893  -0.00329  -0.02687  -0.02453
  80        2S         -0.01612   0.01433  -0.00527  -0.04434  -0.04031
  81        2PX         0.15061  -0.01716   0.00618  -0.02864  -0.03606
  82        2PY        -0.03145  -0.12045   0.00880  -0.02026  -0.00255
  83        2PZ         0.00047  -0.00556  -0.04329   0.00306   0.00243
  84        3S          0.04737  -0.04258   0.01537   0.14021   0.13016
  85        3PX         0.21003  -0.02940   0.00925  -0.05251  -0.07293
  86        3PY        -0.03935  -0.16150   0.01231  -0.03029  -0.00271
  87        3PZ         0.00051  -0.00804  -0.04973   0.00489   0.00187
  88        4S          0.01563  -0.01627   0.01515   0.26736   0.15032
  89        4PX         0.14441  -0.00938   0.00319  -0.11453  -0.19667
  90        4PY        -0.03777  -0.11535   0.01358  -0.07794  -0.09300
  91        4PZ         0.00273  -0.00742  -0.04309   0.05034   0.02285
  92        5S          0.01255   0.01319   0.06740  -3.49988   2.79742
  93        5PX         0.01977   0.00470   0.01693  -0.44527   1.47617
  94        5PY        -0.00746  -0.01686   0.01339  -0.07731   0.55010
  95        5PZ         0.00037  -0.00131  -0.07057   0.06281  -0.05212
  96        6D 0       -0.00031   0.00493  -0.00560  -0.00065  -0.00023
  97        6D+1       -0.00285  -0.00141   0.01113  -0.00110   0.00077
  98        6D-1        0.00368   0.00500   0.01013   0.00041  -0.00096
  99        6D+2       -0.00161  -0.00880  -0.00006  -0.00084   0.00082
 100        6D-2        0.01101   0.00187  -0.00201   0.00264  -0.00224
 101        7D 0       -0.00022  -0.00166  -0.00425   0.01161   0.01301
 102        7D+1       -0.00074   0.00111   0.02840   0.00282   0.00469
 103        7D-1        0.00015   0.00186   0.01763  -0.00476  -0.00505
 104        7D+2       -0.00547  -0.01412   0.00223  -0.01013  -0.00935
 105        7D-2        0.00906   0.00318  -0.00259  -0.00315  -0.03129
 106 8   H  1S          0.03632   0.09064   0.04466   0.01280  -0.00379
 107        2S          0.05571   0.13589   0.08221  -0.04201  -0.03616
 108        3S          0.02493   0.07511   0.08901   0.26348  -0.03131
 109        4PX         0.00841   0.00005   0.00034  -0.00208   0.00274
 110        4PY         0.00366   0.00465   0.00443   0.00808   0.00659
 111        4PZ         0.00405   0.00807   0.00083   0.00624   0.00359
 112 9   H  1S         -0.00598   0.02746  -0.07780   0.01114   0.00386
 113        2S         -0.00934   0.04364  -0.13902  -0.06831  -0.03706
 114        3S         -0.00518   0.01911  -0.15562   0.20039   0.00645
 115        4PX         0.00847   0.00012  -0.00042  -0.00242   0.00408
 116        4PY        -0.00221  -0.00557  -0.00133   0.00172   0.00323
 117        4PZ         0.00083  -0.00472   0.00570  -0.00788  -0.00668
 118 10  H  1S         -0.11648  -0.06560   0.02768  -0.00231   0.02173
 119        2S         -0.17149  -0.10252   0.04691  -0.08396  -0.04989
 120        3S         -0.08315  -0.05115   0.04651   0.25679   0.26356
 121        4PX        -0.00621  -0.01031   0.00243   0.00507   0.00580
 122        4PY         0.00910  -0.00008  -0.00162  -0.00624  -0.00497
 123        4PZ        -0.00519  -0.00381  -0.00117   0.00290   0.00164
                          16        17        18        19        20
                           V         V         V         V         V
     Eigenvalues --     0.03273   0.04671   0.06248   0.07182   0.07865
   1 1   C  1S         -0.02780  -0.00262  -0.01928  -0.00000  -0.00000
   2        2S         -0.04625  -0.00432  -0.03184  -0.00000  -0.00000
   3        2PX         0.00000   0.00000   0.00000   0.03128   0.00450
   4        2PY         0.04320  -0.00159  -0.01271   0.00000   0.00000
   5        2PZ         0.01083  -0.02650   0.00726   0.00000  -0.00000
   6        3S          0.15305   0.02101   0.10286  -0.00000   0.00000
   7        3PX         0.00000  -0.00000   0.00000   0.04239   0.00315
   8        3PY         0.08915  -0.00776  -0.01354   0.00000   0.00000
   9        3PZ         0.01948  -0.03142   0.00931   0.00000  -0.00000
  10        4S          0.19882  -0.02533   0.16068   0.00000   0.00001
  11        4PX        -0.00000  -0.00000  -0.00000   0.08582   0.00900
  12        4PY         0.15152  -0.10519  -0.01406   0.00001   0.00000
  13        4PZ         0.01939  -0.07548   0.01474   0.00000  -0.00000
  14        5S          7.06102   2.87942   8.02717  -0.00017  -0.00016
  15        5PX         0.00013  -0.00019  -0.00013   0.96003   1.08059
  16        5PY        -1.93843  -0.76832  -2.20410   0.00002  -0.00000
  17        5PZ         0.07419  -0.44577   0.04878   0.00001  -0.00002
  18        6D 0        0.00258  -0.00124   0.00222   0.00000   0.00000
  19        6D+1       -0.00000  -0.00000   0.00000  -0.00204   0.00352
  20        6D-1       -0.00095   0.00412   0.00046  -0.00000   0.00000
  21        6D+2        0.00522  -0.00062  -0.00580  -0.00000  -0.00000
  22        6D-2       -0.00000   0.00000   0.00000   0.00260  -0.00163
  23        7D 0        0.01141   0.00945   0.00548  -0.00000  -0.00000
  24        7D+1        0.00000   0.00000  -0.00000   0.00409  -0.00264
  25        7D-1        0.01649   0.00140  -0.00375   0.00000  -0.00000
  26        7D+2       -0.03353   0.01175  -0.00255  -0.00000  -0.00000
  27        7D-2        0.00000  -0.00000  -0.00000  -0.01232   0.00228
  28 2   H  1S         -0.00349   0.00411   0.01027   0.00000   0.00000
  29        2S         -0.13786   0.05901   0.00356  -0.00001  -0.00000
  30        3S          0.11802   0.09600   0.12666   0.00000   0.00001
  31        4PX        -0.00000   0.00000   0.00000  -0.00258  -0.00362
  32        4PY        -0.00826  -0.00758  -0.00799   0.00000  -0.00000
  33        4PZ        -0.00197   0.00396   0.00101   0.00000   0.00000
  34 3   C  1S          0.01007   0.00065   0.00374   0.00198  -0.00132
  35        2S          0.01627   0.00096   0.00647   0.00370  -0.00226
  36        2PX         0.01973   0.00011  -0.01083   0.02484  -0.00494
  37        2PY         0.03327  -0.00456  -0.05361   0.05099   0.00215
  38        2PZ         0.00054  -0.06211   0.00424  -0.01563   0.05452
  39        3S         -0.04716  -0.00008  -0.02763  -0.01891   0.00792
  40        3PX         0.02170  -0.00315  -0.02220   0.05141  -0.00982
  41        3PY         0.07167  -0.00970  -0.08948   0.09185   0.00231
  42        3PZ         0.00327  -0.11390   0.00616  -0.02580   0.09666
  43        4S         -0.07080  -0.04680   0.05359   0.03048   0.01658
  44        4PX         0.07952   0.04830  -0.06316   0.12076  -0.02195
  45        4PY         0.16318   0.00700  -0.21528   0.15192   0.00912
  46        4PZ         0.01688  -0.20444   0.03120  -0.07235   0.21051
  47        5S         -3.45814  -1.44090  -3.92242  -0.28734  -2.40834
  48        5PX         1.16888   0.47286   2.01542  -0.32214   0.66184
  49        5PY        -0.83463  -0.06515   0.13558  -1.72081  -0.53434
  50        5PZ         0.01354   1.07867   0.00533   0.25688  -1.43703
  51        6D 0       -0.00140  -0.00148  -0.00100  -0.00167   0.00070
  52        6D+1       -0.00017   0.00049   0.00081  -0.00011  -0.00047
  53        6D-1       -0.00015   0.00122   0.00084  -0.00148  -0.00277
  54        6D+2        0.00042   0.00068   0.00270   0.00113   0.00154
  55        6D-2       -0.00314   0.00059  -0.00407  -0.00221  -0.00073
  56        7D 0       -0.01585  -0.02832   0.00827  -0.01911   0.02271
  57        7D+1       -0.01273  -0.00579   0.01281  -0.00721  -0.00737
  58        7D-1       -0.01979   0.02122   0.01419  -0.01627  -0.02790
  59        7D+2        0.01145  -0.00874   0.01428   0.01027   0.00877
  60        7D-2       -0.01793   0.01069  -0.03096   0.00096  -0.01368
  61 4   H  1S         -0.00505  -0.02417   0.00244  -0.00857   0.02148
  62        2S          0.02331   0.09216  -0.03702   0.04694  -0.09628
  63        3S         -0.08979  -0.34049   0.01486  -0.23351   0.44353
  64        4PX         0.00393   0.00036   0.00830   0.00395  -0.00279
  65        4PY        -0.00322  -0.00054  -0.00015  -0.00399  -0.00241
  66        4PZ         0.00162   0.00234  -0.00090   0.00180  -0.00324
  67 5   H  1S         -0.00963   0.01412   0.00473  -0.01921  -0.02293
  68        2S          0.08291  -0.05690  -0.06495   0.05283   0.04576
  69        3S         -0.16418   0.23517   0.10618  -0.41656  -0.21398
  70        4PX         0.00192   0.00019   0.00752   0.00476   0.00160
  71        4PY        -0.00106   0.00113   0.00279  -0.00321   0.00030
  72        4PZ        -0.00004   0.00269   0.00049  -0.00105  -0.00082
  73 6   H  1S          0.00354   0.00754  -0.02351   0.00966  -0.00191
  74        2S         -0.05942  -0.03084   0.05630  -0.10014   0.02904
  75        3S          0.06029   0.06562  -0.22369   0.18154   0.02441
  76        4PX         0.00524   0.00188   0.00705   0.00004   0.00043
  77        4PY        -0.00415  -0.00106  -0.00468  -0.00469  -0.00189
  78        4PZ         0.00031   0.00102  -0.00017  -0.00006  -0.00519
  79 7   C  1S          0.01006   0.00065   0.00374  -0.00198   0.00132
  80        2S          0.01627   0.00096   0.00647  -0.00370   0.00226
  81        2PX        -0.01974  -0.00011   0.01083   0.02484  -0.00494
  82        2PY         0.03328  -0.00456  -0.05361  -0.05100  -0.00215
  83        2PZ         0.00054  -0.06211   0.00424   0.01563  -0.05452
  84        3S         -0.04716  -0.00007  -0.02763   0.01891  -0.00792
  85        3PX        -0.02171   0.00315   0.02220   0.05141  -0.00982
  86        3PY         0.07167  -0.00970  -0.08948  -0.09185  -0.00232
  87        3PZ         0.00327  -0.11390   0.00617   0.02579  -0.09666
  88        4S         -0.07079  -0.04682   0.05358  -0.03049  -0.01659
  89        4PX        -0.07952  -0.04830   0.06315   0.12077  -0.02195
  90        4PY         0.16317   0.00700  -0.21528  -0.15193  -0.00914
  91        4PZ         0.01688  -0.20444   0.03120   0.07233  -0.21050
  92        5S         -3.45760  -1.44167  -3.92294   0.28750   2.40849
  93        5PX        -1.16871  -0.47304  -2.01554  -0.32208   0.66189
  94        5PY        -0.83458  -0.06525   0.13553   1.72082   0.53438
  95        5PZ         0.01353   1.07866   0.00532  -0.25691   1.43706
  96        6D 0       -0.00140  -0.00148  -0.00100   0.00167  -0.00070
  97        6D+1        0.00017  -0.00049  -0.00081  -0.00011  -0.00047
  98        6D-1       -0.00015   0.00122   0.00084   0.00148   0.00277
  99        6D+2        0.00042   0.00068   0.00270  -0.00113  -0.00154
 100        6D-2        0.00314  -0.00059   0.00407  -0.00221  -0.00073
 101        7D 0       -0.01585  -0.02832   0.00828   0.01911  -0.02270
 102        7D+1        0.01273   0.00579  -0.01280  -0.00721  -0.00737
 103        7D-1       -0.01979   0.02123   0.01419   0.01626   0.02791
 104        7D+2        0.01145  -0.00874   0.01428  -0.01027  -0.00877
 105        7D-2        0.01792  -0.01068   0.03096   0.00096  -0.01368
 106 8   H  1S         -0.00963   0.01412   0.00473   0.01921   0.02294
 107        2S          0.08290  -0.05691  -0.06494  -0.05283  -0.04576
 108        3S         -0.16419   0.23523   0.10617   0.41652   0.21400
 109        4PX        -0.00192  -0.00019  -0.00752   0.00476   0.00160
 110        4PY        -0.00106   0.00113   0.00279   0.00321  -0.00030
 111        4PZ        -0.00004   0.00269   0.00049   0.00105   0.00082
 112 9   H  1S         -0.00506  -0.02417   0.00244   0.00857  -0.02148
 113        2S          0.02332   0.09215  -0.03704  -0.04695   0.09628
 114        3S         -0.08984  -0.34044   0.01492   0.23357  -0.44352
 115        4PX        -0.00393  -0.00036  -0.00830   0.00395  -0.00279
 116        4PY        -0.00322  -0.00054  -0.00015   0.00399   0.00241
 117        4PZ         0.00162   0.00234  -0.00090  -0.00180   0.00324
 118 10  H  1S          0.00354   0.00754  -0.02351  -0.00966   0.00190
 119        2S         -0.05942  -0.03083   0.05630   0.10015  -0.02902
 120        3S          0.06030   0.06561  -0.22369  -0.18154  -0.02445
 121        4PX        -0.00524  -0.00188  -0.00705   0.00004   0.00043
 122        4PY        -0.00415  -0.00106  -0.00468   0.00469   0.00189
 123        4PZ         0.00031   0.00102  -0.00017   0.00006   0.00519
                          21        22        23        24        25
                           V         V         V         V         V
     Eigenvalues --     0.08497   0.10132   0.11415   0.12221   0.13540
   1 1   C  1S         -0.00505  -0.00124  -0.00000   0.00307  -0.00000
   2        2S         -0.00756  -0.00182  -0.00000   0.00494  -0.00000
   3        2PX         0.00000  -0.00000  -0.02137  -0.00000   0.00934
   4        2PY        -0.04220  -0.02750   0.00000  -0.01510   0.00000
   5        2PZ         0.00815  -0.08547  -0.00000   0.06857  -0.00000
   6        3S          0.01903   0.00846   0.00000  -0.00170  -0.00000
   7        3PX         0.00000   0.00000  -0.01153  -0.00000   0.00283
   8        3PY        -0.05903  -0.04039   0.00000  -0.04852   0.00001
   9        3PZ         0.00932  -0.10055  -0.00000   0.06855  -0.00000
  10        4S         -0.07779  -0.02654  -0.00000  -0.05029   0.00004
  11        4PX        -0.00001  -0.00001  -0.30406  -0.00001   0.08315
  12        4PY         0.17239  -0.11416   0.00001  -0.07831  -0.00002
  13        4PZ        -0.01620  -0.41935  -0.00002   0.45419  -0.00001
  14        5S         -1.09264   8.59901  -0.00157  27.38810  -0.00003
  15        5PX         0.00003  -0.00006   2.98046   0.00028  16.38056
  16        5PY         2.29615  -0.05056   0.00013  -2.98384  -0.00002
  17        5PZ        -0.96082   2.92176  -0.00003  -0.51713   0.00000
  18        6D 0       -0.00972  -0.00120  -0.00000   0.00577   0.00000
  19        6D+1        0.00000  -0.00000  -0.00015  -0.00000   0.00706
  20        6D-1       -0.00366  -0.00000  -0.00000   0.00307  -0.00000
  21        6D+2       -0.00491   0.00562  -0.00000   0.00806   0.00000
  22        6D-2        0.00000   0.00000   0.00809  -0.00000   0.00311
  23        7D 0       -0.00428   0.01012  -0.00000   0.04277  -0.00000
  24        7D+1       -0.00000   0.00000  -0.00789  -0.00000   0.00591
  25        7D-1       -0.00511   0.03193   0.00000  -0.03099  -0.00000
  26        7D+2       -0.00518   0.00769  -0.00000   0.02738   0.00000
  27        7D-2       -0.00000  -0.00000   0.05690   0.00000   0.02213
  28 2   H  1S          0.02262  -0.01995   0.00000  -0.04052  -0.00001
  29        2S          0.03102   0.07634  -0.00001   0.11038  -0.00001
  30        3S          0.12989  -0.40582   0.00007  -1.29998  -0.00006
  31        4PX         0.00000   0.00000   0.01324  -0.00000   0.01358
  32        4PY         0.00952   0.00644   0.00000  -0.00810   0.00000
  33        4PZ        -0.00695   0.00468  -0.00000   0.00178   0.00000
  34 3   C  1S         -0.00946  -0.00815   0.01911  -0.00943  -0.00871
  35        2S         -0.01468  -0.01317   0.03075  -0.01566  -0.01450
  36        2PX        -0.01511   0.01267   0.02241   0.03210   0.02137
  37        2PY        -0.01770   0.02673   0.01647   0.01858  -0.01887
  38        2PZ         0.01508   0.02030   0.00179  -0.04447   0.05161
  39        3S          0.01407   0.03010  -0.07855   0.04879   0.03832
  40        3PX        -0.00367   0.01752   0.01343   0.03429   0.03789
  41        3PY        -0.01987   0.03594   0.03980   0.02760  -0.03603
  42        3PZ         0.01830   0.02618   0.00026  -0.05971   0.06387
  43        4S          0.52897   0.21825  -0.30704   0.12576   0.17886
  44        4PX        -0.36880   0.09931  -0.02268   0.29367   0.03566
  45        4PY        -0.21612   0.22094   0.09463   0.15288  -0.05699
  46        4PZ         0.15845   0.14303   0.04149  -0.44647   0.38986
  47        5S          0.15360  -4.28585   1.27322 -13.34018 -28.46632
  48        5PX         0.00906   1.26786  -2.16880   3.49403   5.92900
  49        5PY        -1.24290  -1.11078  -0.85924  -2.18528  -4.80396
  50        5PZ         0.53747  -1.35747  -0.04051   0.44544   0.71460
  51        6D 0       -0.00768   0.00116   0.00359   0.00535  -0.00685
  52        6D+1       -0.00199   0.00517   0.00051  -0.00230  -0.00181
  53        6D-1       -0.00252   0.00033   0.00066   0.00141   0.00422
  54        6D+2        0.00258   0.00018  -0.00470   0.00070  -0.00179
  55        6D-2        0.00131  -0.00363   0.00148  -0.00637   0.00048
  56        7D 0       -0.01743  -0.00909   0.00760  -0.01410  -0.01360
  57        7D+1        0.00621  -0.00478  -0.00019  -0.00290   0.00567
  58        7D-1       -0.01031   0.00192  -0.00328   0.01338   0.00122
  59        7D+2        0.01697   0.01205  -0.01328   0.00168  -0.01367
  60        7D-2       -0.01462  -0.00500  -0.00983  -0.00011  -0.00668
  61 4   H  1S         -0.01920   0.01147   0.01561   0.00476  -0.02812
  62        2S         -0.11489  -0.02213   0.05714   0.07073  -0.17486
  63        3S         -0.17749   0.16583  -0.21431   0.57063  -0.01047
  64        4PX         0.00594   0.00501   0.00022  -0.00134  -0.00054
  65        4PY        -0.00949   0.00548  -0.00068   0.00440  -0.00164
  66        4PZ        -0.00418  -0.00573   0.00711  -0.00103  -0.00987
  67 5   H  1S         -0.01714  -0.00344   0.01483   0.00387   0.02075
  68        2S         -0.08643   0.02436   0.09935  -0.03951  -0.03279
  69        3S         -0.06398   0.26650  -0.21492  -0.02294   1.11698
  70        4PX         0.00447   0.00338   0.00122   0.01171   0.00246
  71        4PY        -0.00600  -0.00149  -0.00446   0.00646  -0.00694
  72        4PZ         0.00913  -0.00286  -0.00586  -0.00456   0.00815
  73 6   H  1S          0.02059  -0.01861  -0.00309  -0.02258   0.01028
  74        2S          0.04021  -0.09693   0.00847  -0.16626  -0.04461
  75        3S          0.80428  -0.22594  -0.11450  -0.34716   0.91273
  76        4PX        -0.00014   0.00118  -0.01150  -0.00421  -0.00131
  77        4PY        -0.00004  -0.00193   0.00752  -0.00794   0.00260
  78        4PZ         0.00186   0.00307  -0.00214  -0.00584   0.00830
  79 7   C  1S         -0.00946  -0.00815  -0.01911  -0.00943   0.00870
  80        2S         -0.01468  -0.01317  -0.03075  -0.01566   0.01450
  81        2PX         0.01512  -0.01266   0.02241  -0.03211   0.02136
  82        2PY        -0.01771   0.02672  -0.01647   0.01859   0.01888
  83        2PZ         0.01507   0.02031  -0.00179  -0.04446  -0.05161
  84        3S          0.01407   0.03010   0.07854   0.04880  -0.03831
  85        3PX         0.00368  -0.01752   0.01344  -0.03431   0.03789
  86        3PY        -0.01988   0.03594  -0.03980   0.02762   0.03605
  87        3PZ         0.01828   0.02619  -0.00025  -0.05969  -0.06387
  88        4S          0.52896   0.21826   0.30703   0.12581  -0.17882
  89        4PX         0.36884  -0.09927  -0.02265  -0.29378   0.03555
  90        4PY        -0.21619   0.22087  -0.09463   0.15303   0.05713
  91        4PZ         0.15833   0.14312  -0.04143  -0.44637  -0.38982
  92        5S          0.15370  -4.28606  -1.27169 -13.34031  28.46648
  93        5PX        -0.00904  -1.26790  -2.16840  -3.49440   5.92894
  94        5PY        -1.24289  -1.11087   0.85954  -2.18499   4.80408
  95        5PZ         0.53741  -1.35736   0.04052   0.44550  -0.71458
  96        6D 0       -0.00768   0.00116  -0.00359   0.00535   0.00685
  97        6D+1        0.00199  -0.00517   0.00051   0.00231  -0.00181
  98        6D-1       -0.00253   0.00033  -0.00066   0.00141  -0.00422
  99        6D+2        0.00258   0.00018   0.00470   0.00070   0.00179
 100        6D-2       -0.00131   0.00363   0.00148   0.00637   0.00048
 101        7D 0       -0.01743  -0.00909  -0.00759  -0.01410   0.01360
 102        7D+1       -0.00621   0.00478  -0.00019   0.00290   0.00567
 103        7D-1       -0.01031   0.00192   0.00328   0.01338  -0.00122
 104        7D+2        0.01697   0.01205   0.01328   0.00169   0.01367
 105        7D-2        0.01462   0.00500  -0.00983   0.00011  -0.00668
 106 8   H  1S         -0.01714  -0.00345  -0.01483   0.00388  -0.02074
 107        2S         -0.08645   0.02436  -0.09934  -0.03948   0.03282
 108        3S         -0.06408   0.26649   0.21496  -0.02265  -1.11686
 109        4PX        -0.00447  -0.00338   0.00122  -0.01171   0.00246
 110        4PY        -0.00600  -0.00149   0.00446   0.00646   0.00694
 111        4PZ         0.00913  -0.00285   0.00586  -0.00456  -0.00815
 112 9   H  1S         -0.01920   0.01146  -0.01561   0.00475   0.02812
 113        2S         -0.11487  -0.02215  -0.05715   0.07071   0.17485
 114        3S         -0.17740   0.16569   0.21423   0.57059   0.01041
 115        4PX        -0.00593  -0.00501   0.00022   0.00134  -0.00054
 116        4PY        -0.00949   0.00548   0.00068   0.00440   0.00164
 117        4PZ        -0.00418  -0.00573  -0.00711  -0.00104   0.00987
 118 10  H  1S          0.02059  -0.01860   0.00310  -0.02259  -0.01029
 119        2S          0.04022  -0.09691  -0.00844  -0.16629   0.04458
 120        3S          0.80428  -0.22579   0.11451  -0.34731  -0.91299
 121        4PX         0.00014  -0.00118  -0.01150   0.00420  -0.00131
 122        4PY        -0.00004  -0.00193  -0.00752  -0.00794  -0.00260
 123        4PZ         0.00186   0.00307   0.00214  -0.00584  -0.00830
                          26        27        28        29        30
                           V         V         V         V         V
     Eigenvalues --     0.15877   0.16604   0.19199   0.20863   0.21529
   1 1   C  1S          0.00736  -0.00000   0.04435  -0.00000  -0.03070
   2        2S          0.01119  -0.00000   0.07130  -0.00000  -0.05043
   3        2PX        -0.00000   0.01201   0.00001   0.01402   0.00001
   4        2PY        -0.03022   0.00001  -0.06148  -0.00001   0.05431
   5        2PZ        -0.00391   0.00001  -0.02621   0.00002  -0.01969
   6        3S         -0.00608   0.00000  -0.14218  -0.00001   0.12875
   7        3PX        -0.00001   0.03275   0.00001   0.02928   0.00002
   8        3PY        -0.07904   0.00001  -0.03273  -0.00001   0.00624
   9        3PZ        -0.01528   0.00001  -0.03241   0.00002  -0.02963
  10        4S         -0.44530   0.00006  -2.33080   0.00018   1.28901
  11        4PX        -0.00000   0.10393   0.00004  -0.00769   0.00006
  12        4PY         0.10171   0.00002  -0.50336  -0.00022   0.75941
  13        4PZ         0.09717   0.00007  -0.30937   0.00017  -0.14112
  14        5S         13.55262  -0.00025  29.15145  -0.01018  22.61538
  15        5PX         0.00061  -9.64723   0.00003   3.36626   0.00037
  16        5PY        -2.17464   0.00006  -6.14568   0.00151  -2.34818
  17        5PZ         1.90707   0.00007  -0.79582   0.00008   0.28246
  18        6D 0        0.00230  -0.00000  -0.00458  -0.00000   0.01520
  19        6D+1        0.00000   0.01476  -0.00000  -0.00635  -0.00000
  20        6D-1        0.00264   0.00000  -0.00183   0.00000  -0.00980
  21        6D+2       -0.01692   0.00000  -0.00462  -0.00000  -0.00514
  22        6D-2       -0.00000   0.00671   0.00000   0.00709   0.00000
  23        7D 0        0.01532   0.00000   0.01045  -0.00001   0.02717
  24        7D+1       -0.00000   0.01512   0.00000   0.00376   0.00000
  25        7D-1       -0.02612  -0.00000   0.01805   0.00000  -0.01467
  26        7D+2        0.02160  -0.00000  -0.04144  -0.00000   0.04683
  27        7D-2        0.00000  -0.02049  -0.00000   0.01423  -0.00000
  28 2   H  1S          0.04416  -0.00001   0.03766   0.00002  -0.06176
  29        2S          0.12049  -0.00001   0.14347   0.00002  -0.07530
  30        3S          0.13305  -0.00018   1.83488   0.00057  -3.08482
  31        4PX        -0.00000   0.00651   0.00000   0.00477   0.00000
  32        4PY        -0.00558  -0.00000   0.01621   0.00000  -0.02095
  33        4PZ         0.00374   0.00000  -0.00190   0.00000  -0.00841
  34 3   C  1S          0.00727   0.00541   0.00619  -0.01384   0.01209
  35        2S          0.01192   0.00915   0.00941  -0.02157   0.02000
  36        2PX        -0.01271   0.02899  -0.03495   0.10007   0.03494
  37        2PY        -0.07424   0.05034   0.02939   0.05323  -0.06092
  38        2PZ        -0.05022   0.08862   0.05716  -0.04876   0.07921
  39        3S         -0.03566  -0.02719  -0.01624   0.03127  -0.06113
  40        3PX        -0.01253   0.03571  -0.06249   0.12403   0.06003
  41        3PY        -0.08429   0.05625   0.04686   0.04901  -0.07944
  42        3PZ        -0.05412   0.09975   0.05682  -0.05442   0.09269
  43        4S         -0.10553  -0.11809  -0.40176   0.85473  -0.17858
  44        4PX        -0.28834   0.35027  -0.36096   0.73404   0.07018
  45        4PY        -0.69331   0.43111   0.43002   0.58035  -0.63598
  46        4PZ        -0.50401   0.78833   0.56708  -0.42088   0.66193
  47        5S         -6.91147  15.89712 -15.63680  -6.79521 -10.63721
  48        5PX         1.31485  -2.96453   4.05184   2.56325   2.26915
  49        5PY        -1.43561   3.15407  -1.56903   0.09054  -1.74310
  50        5PZ        -1.18501   0.35341   1.08323  -0.59958   0.68558
  51        6D 0       -0.00028  -0.00460   0.00107   0.00601  -0.00870
  52        6D+1       -0.00435  -0.00075   0.00142   0.00533  -0.00342
  53        6D-1       -0.01064   0.01351   0.00325   0.00203   0.00123
  54        6D+2        0.00658  -0.00380  -0.00076  -0.00019  -0.00106
  55        6D-2        0.00638  -0.00123   0.01235  -0.00945   0.00076
  56        7D 0       -0.00099   0.00978  -0.02654   0.01015   0.01236
  57        7D+1       -0.01941  -0.00792   0.00841   0.00315  -0.00929
  58        7D-1        0.00337   0.00685  -0.01435  -0.00684   0.00189
  59        7D+2        0.02305   0.00371   0.01482   0.00311   0.02214
  60        7D-2        0.01370   0.01029  -0.01236  -0.00051   0.02509
  61 4   H  1S          0.01042  -0.04371  -0.00771   0.02103  -0.03757
  62        2S          0.01933  -0.11392  -0.02147   0.01687  -0.13006
  63        3S          0.74998  -1.59458  -0.42217   0.96111  -1.55570
  64        4PX        -0.01188   0.00125  -0.00338   0.00925  -0.00387
  65        4PY        -0.00886   0.01144   0.00724   0.00521   0.00075
  66        4PZ         0.00076  -0.00074  -0.00328   0.00403  -0.00797
  67 5   H  1S         -0.05009   0.05038   0.00987  -0.00112   0.00855
  68        2S         -0.15715   0.21117   0.07326  -0.01794  -0.04682
  69        3S         -1.72417   1.29203   1.39118   0.34108   0.33052
  70        4PX         0.00464   0.00165  -0.01854   0.00552   0.00449
  71        4PY         0.00295  -0.00747   0.00138   0.00654  -0.01271
  72        4PZ         0.00402  -0.00516  -0.00301  -0.00688   0.00874
  73 6   H  1S          0.04537  -0.01447   0.02807  -0.06154   0.02786
  74        2S          0.09466  -0.03827   0.02286  -0.18522   0.04964
  75        3S          1.26272  -0.83963   0.97180  -2.49928   1.29642
  76        4PX         0.00304   0.00586   0.00073  -0.00913   0.00767
  77        4PY        -0.00126   0.00019   0.00411  -0.01216   0.00533
  78        4PZ        -0.01183   0.01221   0.00609   0.00244   0.00185
  79 7   C  1S          0.00727  -0.00542   0.00619   0.01384   0.01209
  80        2S          0.01192  -0.00916   0.00941   0.02156   0.02001
[...]
                ( 39.11%)   0.6254* C   3 s( 22.83%)p 3.38( 77.09%)d 0.00(  0.08%)
                                            0.0000  0.4776 -0.0125 -0.0014  0.0001
                                           -0.0013 -0.0161  0.0019  0.0004 -0.7019
                                           -0.0041 -0.0008  0.0003 -0.5271 -0.0057
                                           -0.0017 -0.0004  0.0017  0.0006  0.0043
                                           -0.0017  0.0242  0.0003 -0.0147 -0.0025
                                            0.0000  0.0021
                ( 60.89%)  -0.7803* H   5 s( 99.98%)p 0.00(  0.02%)
                                            0.9999  0.0046 -0.0005 -0.0008  0.0123
                                            0.0091
   120. (0.00250) BD*( 1) C   3 - H   6  
                ( 39.35%)   0.6273* C   3 s( 23.05%)p 3.34( 76.87%)d 0.00(  0.09%)
                                            0.0001 -0.4800  0.0064  0.0002  0.0000
                                           -0.6724 -0.0015 -0.0055  0.0010 -0.5073
                                           -0.0151 -0.0006  0.0000  0.2427  0.0029
                                            0.0016  0.0001 -0.0232 -0.0014  0.0095
                                            0.0005  0.0098 -0.0002 -0.0039 -0.0002
                                            0.0118 -0.0007
                ( 60.65%)  -0.7788* H   6 s( 99.98%)p 0.00(  0.02%)
                                           -0.9999 -0.0004  0.0001  0.0116  0.0081
                                           -0.0044
   121. (0.00309) BD*( 1) C   7 - H   8  
                ( 39.11%)   0.6254* C   7 s( 22.83%)p 3.38( 77.09%)d 0.00(  0.08%)
                                            0.0000  0.4776 -0.0125 -0.0014  0.0001
                                            0.0012  0.0161 -0.0019 -0.0004 -0.7019
                                           -0.0041 -0.0008  0.0003 -0.5272 -0.0057
                                           -0.0017 -0.0004 -0.0017 -0.0006 -0.0043
                                            0.0017  0.0242  0.0003 -0.0147 -0.0025
                                            0.0000  0.0021
                ( 60.89%)  -0.7803* H   8 s( 99.98%)p 0.00(  0.02%)
                                            0.9999  0.0046 -0.0005  0.0008  0.0123
                                            0.0091
   122. (0.00084) BD*( 1) C   7 - H   9  
                ( 37.65%)   0.6136* C   7 s( 22.86%)p 3.37( 77.06%)d 0.00(  0.08%)
                                           -0.0002  0.4780 -0.0107 -0.0011  0.0000
                                           -0.1679  0.0114 -0.0014  0.0004 -0.2856
                                            0.0023 -0.0006  0.0010  0.8128  0.0096
                                            0.0023 -0.0006  0.0027 -0.0007 -0.0042
                                           -0.0016 -0.0136 -0.0004 -0.0004 -0.0017
                                            0.0240  0.0000
                ( 62.35%)  -0.7896* H   9 s( 99.97%)p 0.00(  0.03%)
                                            0.9998  0.0118 -0.0011  0.0051  0.0061
                                           -0.0138
   123. (0.00250) BD*( 1) C   7 - H  10  
                ( 39.35%)   0.6273* C   7 s( 23.05%)p 3.34( 76.87%)d 0.00(  0.09%)
                                           -0.0001  0.4800 -0.0064 -0.0002 -0.0000
                                           -0.6724 -0.0015 -0.0055  0.0010  0.5073
                                            0.0151  0.0006 -0.0000 -0.2426 -0.0029
                                           -0.0016 -0.0001 -0.0232 -0.0014  0.0095
                                            0.0005 -0.0098  0.0002  0.0039  0.0002
                                           -0.0118  0.0007
                ( 60.65%)  -0.7788* H  10 s( 99.98%)p 0.00(  0.02%)
                                            0.9999  0.0004 -0.0001  0.0116 -0.0081
                                            0.0044


 NHO Directionality and "Bond Bending" (deviations from line of nuclear centers)

         [Thresholds for printing:  angular deviation  >  1.0 degree]
                                    hybrid p-character > 25.0%
                                    orbital occupancy  >  0.10e

                                Line of Centers        Hybrid 1              Hybrid 2
                                ---------------  -------------------   ------------------
                NBO               Theta   Phi    Theta   Phi    Dev    Theta   Phi    Dev
 ========================================================================================
     1. BD (   1) C   1 - H   2    80.8   90.0    83.3   90.0   2.5      --     --    --
     2. BD (   1) C   1 - C   3    87.8  330.7    90.3  330.2   2.6      --     --    --
     3. BD (   1) C   1 - C   7    87.8  209.3    90.3  209.8   2.6      --     --    --
     4. BD (   1) C   3 - H   4    23.2  301.4    21.4  299.1   2.0      --     --    --
     5. BD (   1) C   3 - H   5   126.5  269.7   127.1  268.8   1.0      --     --    --
     7. BD (   1) C   7 - H   8   126.5  270.2   127.1  271.2   1.0      --     --    --
     8. BD (   1) C   7 - H   9    23.2  238.7    21.4  240.9   2.0      --     --    --


 Second Order Perturbation Theory Analysis of Fock Matrix in NBO Basis

     Threshold for printing:   0.25 kcal/mol
                                                                              E(2)  E(j)-E(i) F(i,j)
         Donor NBO (i)                     Acceptor NBO (j)                 kcal/mol   a.u.    a.u. 
 ===================================================================================================

 within unit  1
   1. BD (   1) C   1 - H   2        / 41. RY*(   1) C   3                    0.54    1.23    0.033
   1. BD (   1) C   1 - H   2        / 42. RY*(   2) C   3                    0.26    1.94    0.028
   1. BD (   1) C   1 - H   2        / 78. RY*(   1) C   7                    0.54    1.23    0.033
   1. BD (   1) C   1 - H   2        / 79. RY*(   2) C   7                    0.26    1.94    0.028
   1. BD (   1) C   1 - H   2        /119. BD*(   1) C   3 - H   5            0.91    0.89    0.036
   1. BD (   1) C   1 - H   2        /120. BD*(   1) C   3 - H   6            0.28    0.89    0.020
   1. BD (   1) C   1 - H   2        /121. BD*(   1) C   7 - H   8            0.91    0.89    0.036
   1. BD (   1) C   1 - H   2        /123. BD*(   1) C   7 - H  10            0.28    0.89    0.020
   2. BD (   1) C   1 - C   3        / 78. RY*(   1) C   7                    0.49    1.36    0.033
   2. BD (   1) C   1 - C   3        / 79. RY*(   2) C   7                    0.30    2.07    0.032
   2. BD (   1) C   1 - C   3        /118. BD*(   1) C   3 - H   4            0.28    1.01    0.021
   2. BD (   1) C   1 - C   3        /119. BD*(   1) C   3 - H   5            0.27    1.02    0.021
   2. BD (   1) C   1 - C   3        /120. BD*(   1) C   3 - H   6            0.29    1.02    0.022
   2. BD (   1) C   1 - C   3        /123. BD*(   1) C   7 - H  10            0.61    1.02    0.032
   3. BD (   1) C   1 - C   7        / 41. RY*(   1) C   3                    0.49    1.36    0.033
   3. BD (   1) C   1 - C   7        / 42. RY*(   2) C   3                    0.30    2.07    0.032
   3. BD (   1) C   1 - C   7        /120. BD*(   1) C   3 - H   6            0.61    1.02    0.032
   3. BD (   1) C   1 - C   7        /121. BD*(   1) C   7 - H   8            0.27    1.02    0.021
   3. BD (   1) C   1 - C   7        /122. BD*(   1) C   7 - H   9            0.28    1.01    0.021
   3. BD (   1) C   1 - C   7        /123. BD*(   1) C   7 - H  10            0.29    1.02    0.022
   4. BD (   1) C   3 - H   4        / 13. LP*(   1) C   1                    5.96    0.49    0.070
   5. BD (   1) C   3 - H   5        / 13. LP*(   1) C   1                    1.52    0.49    0.036
   5. BD (   1) C   3 - H   5        /115. BD*(   1) C   1 - H   2            1.39    0.93    0.046
   6. BD (   1) C   3 - H   6        / 13. LP*(   1) C   1                    0.50    0.49    0.020
   6. BD (   1) C   3 - H   6        / 14. RY*(   1) C   1                    0.29    1.67    0.028
   6. BD (   1) C   3 - H   6        /117. BD*(   1) C   1 - C   7            1.76    0.94    0.052
   7. BD (   1) C   7 - H   8        / 13. LP*(   1) C   1                    1.52    0.49    0.036
   7. BD (   1) C   7 - H   8        /115. BD*(   1) C   1 - H   2            1.39    0.93    0.046
   8. BD (   1) C   7 - H   9        / 13. LP*(   1) C   1                    5.96    0.49    0.070
   9. BD (   1) C   7 - H  10        / 13. LP*(   1) C   1                    0.50    0.49    0.020
   9. BD (   1) C   7 - H  10        / 14. RY*(   1) C   1                    0.29    1.67    0.028
   9. BD (   1) C   7 - H  10        /116. BD*(   1) C   1 - C   3            1.76    0.94    0.052
  10. CR (   1) C   1                / 37. RY*(   2) H   2                    0.26   12.25    0.071
  11. CR (   1) C   3                / 15. RY*(   2) C   1                    0.44   11.13    0.088
  11. CR (   1) C   3                / 19. RY*(   6) C   1                    0.26   10.97    0.068
  12. CR (   1) C   7                / 15. RY*(   2) C   1                    0.44   11.13    0.088
  12. CR (   1) C   7                / 19. RY*(   6) C   1                    0.26   10.97    0.068
  13. LP*(   1) C   1                / 23. RY*(  10) C   1                    1.40    0.41    0.110
  13. LP*(   1) C   1                /118. BD*(   1) C   3 - H   4            0.64    0.39    0.072
  13. LP*(   1) C   1                /119. BD*(   1) C   3 - H   5            0.25    0.39    0.045
  13. LP*(   1) C   1                /121. BD*(   1) C   7 - H   8            0.25    0.39    0.045
  13. LP*(   1) C   1                /122. BD*(   1) C   7 - H   9            0.64    0.39    0.072


 Natural Bond Orbitals (Summary):

                                                            Principal Delocalizations
           NBO                        Occupancy    Energy   (geminal,vicinal,remote)
 ====================================================================================
 Molecular unit  1  (C3H7)
     1. BD (   1) C   1 - H   2          0.99125    -0.49649  119(v),121(v),41(v),78(v)
                                                    120(v),123(v),42(v),79(v)
     2. BD (   1) C   1 - C   3          0.99626    -0.62577  123(v),78(v),79(v),120(g)
                                                    118(g),119(g)
     3. BD (   1) C   1 - C   7          0.99626    -0.62577  120(v),41(v),42(v),123(g)
                                                    122(g),121(g)
     4. BD (   1) C   3 - H   4          0.97217    -0.48580  13(v)
     5. BD (   1) C   3 - H   5          0.98766    -0.49115  13(v),115(v)
     6. BD (   1) C   3 - H   6          0.99171    -0.49313  117(v),13(v),14(v)
     7. BD (   1) C   7 - H   8          0.98766    -0.49115  13(v),115(v)
     8. BD (   1) C   7 - H   9          0.97217    -0.48580  13(v)
     9. BD (   1) C   7 - H  10          0.99171    -0.49313  116(v),13(v),14(v)
    10. CR (   1) C   1                  0.99969   -10.04073  37(v)
    11. CR (   1) C   3                  0.99968   -10.02391  15(v),19(v)
    12. CR (   1) C   7                  0.99968   -10.02391  15(v),19(v)
    13. LP*(   1) C   1                  0.07562    -0.00027   
    14. RY*(   1) C   1                  0.00127     1.17903   
    15. RY*(   2) C   1                  0.00055     1.11082   
    16. RY*(   3) C   1                  0.00030     1.21282   
    17. RY*(   4) C   1                  0.00020     1.30133   
    18. RY*(   5) C   1                  0.00012     3.08695   
    19. RY*(   6) C   1                  0.00008     0.94366   
    20. RY*(   7) C   1                  0.00003     2.69670   
    21. RY*(   8) C   1                  0.00000     2.75516   
    22. RY*(   9) C   1                  0.00000    22.91594   
    23. RY*(  10) C   1                  0.00000     0.41033   
    24. RY*(  11) C   1                  0.00000     0.54372   
    25. RY*(  12) C   1                  0.00000     2.67749   
    26. RY*(  13) C   1                  0.00000     2.15430   
    27. RY*(  14) C   1                  0.00000     2.14220   
    28. RY*(  15) C   1                  0.00000     1.44616   
    29. RY*(  16) C   1                  0.00000     2.64828   
    30. RY*(  17) C   1                  0.00000     1.48032   
    31. RY*(  18) C   1                  0.00000     2.94542   
    32. RY*(  19) C   1                  0.00000     1.65710   
    33. RY*(  20) C   1                  0.00000     0.40963   
    34. RY*(  21) C   1                  0.00001     1.57293   
    35. RY*(  22) C   1                  0.00000     3.23478   
    36. RY*(   1) H   2                  0.00037     0.64111   
    37. RY*(   2) H   2                  0.00006     2.21035   
    38. RY*(   3) H   2                  0.00004     2.31800   
    39. RY*(   4) H   2                  0.00002     2.78337   
    40. RY*(   5) H   2                  0.00001     1.93501   
    41. RY*(   1) C   3                  0.00179     0.73587   
    42. RY*(   2) C   3                  0.00044     1.44153   
    43. RY*(   3) C   3                  0.00014     0.83235   
    44. RY*(   4) C   3                  0.00007     0.90989   
    45. RY*(   5) C   3                  0.00006     0.96953   
    46. RY*(   6) C   3                  0.00003     0.86282   
    47. RY*(   7) C   3                  0.00000    23.28880   
    48. RY*(   8) C   3                  0.00000     0.27040   
    49. RY*(   9) C   3                  0.00000     2.25105   
    50. RY*(  10) C   3                  0.00000     0.94347   
    51. RY*(  11) C   3                  0.00000     0.27922   
    52. RY*(  12) C   3                  0.00000     2.98168   
    53. RY*(  13) C   3                  0.00000     2.12781   
    54. RY*(  14) C   3                  0.00000     3.29593   
    55. RY*(  15) C   3                  0.00000     1.31908   
    56. RY*(  16) C   3                  0.00000     3.24434   
    57. RY*(  17) C   3                  0.00000     1.89944   
    58. RY*(  18) C   3                  0.00000     2.66686   
    59. RY*(  19) C   3                  0.00000     1.93398   
    60. RY*(  20) C   3                  0.00000     2.77489   
    61. RY*(  21) C   3                  0.00000     1.72817   
    62. RY*(  22) C   3                  0.00000     2.92597   
    63. RY*(   1) H   4                  0.00023     1.07063   
    64. RY*(   2) H   4                  0.00006     1.97387   
    65. RY*(   3) H   4                  0.00005     1.93105   
    66. RY*(   4) H   4                  0.00003     2.24023   
    67. RY*(   5) H   4                  0.00001     2.31455   
    68. RY*(   1) H   5                  0.00046     0.79006   
    69. RY*(   2) H   5                  0.00006     2.06678   
    70. RY*(   3) H   5                  0.00004     2.14642   
    71. RY*(   4) H   5                  0.00004     2.15184   
    72. RY*(   5) H   5                  0.00002     2.42576   
    73. RY*(   1) H   6                  0.00028     0.85141   
    74. RY*(   2) H   6                  0.00006     2.07309   
    75. RY*(   3) H   6                  0.00006     1.94455   
    76. RY*(   4) H   6                  0.00003     2.17787   
    77. RY*(   5) H   6                  0.00001     2.53762   
    78. RY*(   1) C   7                  0.00179     0.73587   
    79. RY*(   2) C   7                  0.00044     1.44154   
    80. RY*(   3) C   7                  0.00014     0.83235   
    81. RY*(   4) C   7                  0.00007     0.90989   
    82. RY*(   5) C   7                  0.00006     0.96949   
    83. RY*(   6) C   7                  0.00003     0.86276   
    84. RY*(   7) C   7                  0.00000    23.28880   
    85. RY*(   8) C   7                  0.00000     0.27037   
    86. RY*(   9) C   7                  0.00000     2.25111   
    87. RY*(  10) C   7                  0.00000     0.94364   
    88. RY*(  11) C   7                  0.00000     0.27914   
    89. RY*(  12) C   7                  0.00000     2.98170   
    90. RY*(  13) C   7                  0.00000     2.12784   
    91. RY*(  14) C   7                  0.00000     3.29594   
    92. RY*(  15) C   7                  0.00000     1.31903   
    93. RY*(  16) C   7                  0.00000     3.24425   
    94. RY*(  17) C   7                  0.00000     1.89948   
    95. RY*(  18) C   7                  0.00000     2.66688   
    96. RY*(  19) C   7                  0.00000     1.93394   
    97. RY*(  20) C   7                  0.00000     2.77492   
    98. RY*(  21) C   7                  0.00000     1.72816   
    99. RY*(  22) C   7                  0.00000     2.92598   
   100. RY*(   1) H   8                  0.00046     0.79007   
   101. RY*(   2) H   8                  0.00006     2.06678   
   102. RY*(   3) H   8                  0.00004     2.14643   
   103. RY*(   4) H   8                  0.00004     2.15182   
   104. RY*(   5) H   8                  0.00002     2.42574   
   105. RY*(   1) H   9                  0.00023     1.07061   
   106. RY*(   2) H   9                  0.00006     1.97386   
   107. RY*(   3) H   9                  0.00005     1.93105   
   108. RY*(   4) H   9                  0.00003     2.24025   
   109. RY*(   5) H   9                  0.00001     2.31455   
   110. RY*(   1) H  10                  0.00028     0.85140   
   111. RY*(   2) H  10                  0.00006     2.07311   
   112. RY*(   3) H  10                  0.00006     1.94454   
   113. RY*(   4) H  10                  0.00003     2.17788   
   114. RY*(   5) H  10                  0.00001     2.53763   
   115. BD*(   1) C   1 - H   2          0.00702     0.44341   
   116. BD*(   1) C   1 - C   3          0.00381     0.45025   
   117. BD*(   1) C   1 - C   7          0.00381     0.45025   
   118. BD*(   1) C   3 - H   4          0.00084     0.38742   
   119. BD*(   1) C   3 - H   5          0.00309     0.39253   
   120. BD*(   1) C   3 - H   6          0.00250     0.39849   
   121. BD*(   1) C   7 - H   8          0.00309     0.39253   
   122. BD*(   1) C   7 - H   9          0.00084     0.38742   
   123. BD*(   1) C   7 - H  10          0.00250     0.39849   
       -------------------------------
              Total Lewis   11.88590  ( 99.0492%)
        Valence non-Lewis    0.10312  (  0.8594%)
        Rydberg non-Lewis    0.01098  (  0.0915%)
       -------------------------------
            Total unit  1   12.00000  (100.0000%)
           Charge unit  1    0.50000
 Leave Link  607 at Wed Sep  5 16:48:47 2018, MaxMem=   805306368 cpu:               9.2 elap:               1.5
 (Enter /home/g16/l9999.exe)
 1\1\GINC-PC13\Stability\UB3LYP\6-311+G(2d,p)\C3H7(2)\MASKER\05-Sep-201
 8\0\\#p b3lyp/6-311+g(2d,p) pop=(full,nboread) stable=opt g09def\\ipr-
 c1-1sp 1\\0,2\C,0,0.,0.531689,-0.053041\H,0,0.000005,1.605495,0.120769
 \C,0,1.301177,-0.197675,0.003716\H,0,1.528275,-0.570287,1.020091\H,0,1
 .297315,-1.081521,-0.650024\H,0,2.141492,0.440039,-0.293624\C,0,-1.301
 178,-0.197673,0.003716\H,0,-1.297363,-1.081448,-0.650122\H,0,-1.528211
 ,-0.570403,1.020063\H,0,-2.141507,0.440078,-0.293501\\Version=ES64L-G1
 6RevA.03\State=2-A\HF=-118.5180347\S2=0.754127\S2-1=0.\S2A=0.750013\RM
 SD=6.098e-09\Dipole=0.0000017,-0.0527403,0.0850888\Quadrupole=0.255683
 8,0.253063,-0.5087468,0.0000086,0.0000004,0.2408664\PG=C01 [X(C3H7)]\\
 @


 Just remember, when you're over the hill, you begin to pick up speed.
 -- Charles Schulz
 Job cpu time:       0 days  0 hours  3 minutes 14.7 seconds.
 Elapsed time:       0 days  0 hours  0 minutes 25.2 seconds.
 File lengths (MBytes):  RWF=     87 Int=      0 D2E=      0 Chk=      3 Scr=      1
 Normal termination of Gaussian 16 at Wed Sep  5 16:48:47 2018.
