 Entering Gaussian System, Link 0=g16
 Input=MF3-c1-1sp.gjf
 Output=MF3-c1-1sp.log
 Initial command:
 /home/g16/l1.exe "/home/masker/scratch/Gau-29547.inp" -scrdir="/home/masker/scratch/"
 Entering Link 1 = /home/g16/l1.exe PID=     29548.
  
 Copyright (c) 1988,1990,1992,1993,1995,1998,2003,2009,2016,
            Gaussian, Inc.  All Rights Reserved.
  
 This is part of the Gaussian(R) 16 program.  It is based on
 the Gaussian(R) 09 system (copyright 2009, Gaussian, Inc.),
 the Gaussian(R) 03 system (copyright 2003, Gaussian, Inc.),
 the Gaussian(R) 98 system (copyright 1998, Gaussian, Inc.),
 the Gaussian(R) 94 system (copyright 1995, Gaussian, Inc.),
 the Gaussian 92(TM) system (copyright 1992, Gaussian, Inc.),
 the Gaussian 90(TM) system (copyright 1990, Gaussian, Inc.),
 the Gaussian 88(TM) system (copyright 1988, Gaussian, Inc.),
 the Gaussian 86(TM) system (copyright 1986, Carnegie Mellon
 University), and the Gaussian 82(TM) system (copyright 1983,
 Carnegie Mellon University). Gaussian is a federally registered
 trademark of Gaussian, Inc.
  
 This software contains proprietary and confidential information,
 including trade secrets, belonging to Gaussian, Inc.
  
 This software is provided under written license and may be
 used, copied, transmitted, or stored only in accord with that
 written license.
  
 The following legend is applicable only to US Government
 contracts under FAR:
  
                    RESTRICTED RIGHTS LEGEND
  
 Use, reproduction and disclosure by the US Government is
 subject to restrictions as set forth in subparagraphs (a)
 and (c) of the Commercial Computer Software - Restricted
 Rights clause in FAR 52.227-19.
  
 Gaussian, Inc.
 340 Quinnipiac St., Bldg. 40, Wallingford CT 06492
  
  
 ---------------------------------------------------------------
 Warning -- This program may not be used in any manner that
 competes with the business of Gaussian, Inc. or will provide
 assistance to any competitor of Gaussian, Inc.  The licensee
 of this program is prohibited from giving any competitor of
 Gaussian, Inc. access to this program.  By using this program,
 the user acknowledges that Gaussian, Inc. is engaged in the
 business of creating and licensing software in the field of
 computational chemistry and represents and warrants to the
 licensee that it is not a competitor of Gaussian, Inc. and that
 it will not use this program in any manner prohibited above.
 ---------------------------------------------------------------
  

 Cite this work as:
 Gaussian 16, Revision A.03,
 M. J. Frisch, G. W. Trucks, H. B. Schlegel, G. E. Scuseria, 
 M. A. Robb, J. R. Cheeseman, G. Scalmani, V. Barone, 
 G. A. Petersson, H. Nakatsuji, X. Li, M. Caricato, A. V. Marenich, 
 J. Bloino, B. G. Janesko, R. Gomperts, B. Mennucci, H. P. Hratchian, 
 J. V. Ortiz, A. F. Izmaylov, J. L. Sonnenberg, D. Williams-Young, 
 F. Ding, F. Lipparini, F. Egidi, J. Goings, B. Peng, A. Petrone, 
 T. Henderson, D. Ranasinghe, V. G. Zakrzewski, J. Gao, N. Rega, 
 G. Zheng, W. Liang, M. Hada, M. Ehara, K. Toyota, R. Fukuda, 
 J. Hasegawa, M. Ishida, T. Nakajima, Y. Honda, O. Kitao, H. Nakai, 
 T. Vreven, K. Throssell, J. A. Montgomery, Jr., J. E. Peralta, 
 F. Ogliaro, M. J. Bearpark, J. J. Heyd, E. N. Brothers, K. N. Kudin, 
 V. N. Staroverov, T. A. Keith, R. Kobayashi, J. Normand, 
 K. Raghavachari, A. P. Rendell, J. C. Burant, S. S. Iyengar, 
 J. Tomasi, M. Cossi, J. M. Millam, M. Klene, C. Adamo, R. Cammi, 
 J. W. Ochterski, R. L. Martin, K. Morokuma, O. Farkas, 
 J. B. Foresman, and D. J. Fox, Gaussian, Inc., Wallingford CT, 2016.
 
 ******************************************
 Gaussian 16:  ES64L-G16RevA.03 25-Dec-2016
                 5-Sep-2018 
 ******************************************
 %nprocshared=8
 Will use up to    8 processors via shared memory.
 %mem=6GB
 %chk=MF3-c1-1sp.chk
 -----------------------------------------------------------
 #p b3lyp/6-311+g(2d,p) pop=(full,nboread) stable=opt g09def
 -----------------------------------------------------------
 1/38=1,158=3,167=1,172=1/1;
 2/12=2,17=6,18=5,40=1/2;
 3/5=4,6=6,7=112,11=2,25=1,27=10,30=1,74=-5,75=-4,158=3/1,2,3;
 4/60=-1/1;
 5/5=2,38=5,87=10/2;
 6/7=3,28=1,40=2,87=10/1,7;
 8/6=1,10=90,11=11,87=10/1;
 9/8=-3,42=1,46=1,87=10/14;
 5/5=2,8=3,17=40,38=5,87=10/8(-2);
 6/7=3,28=1,40=2,87=10/1,7;
 99/5=1,9=1/99;
 Using 2006 physical constants.
 Leave Link    1 at Wed Sep  5 16:48:50 2018, MaxMem=   805306368 cpu:               0.4 elap:               0.1
 (Enter /home/g16/l101.exe)
 ------------
 MF3-c1-1sp 1
 ------------
 Symbolic Z-matrix:
 Charge =  0 Multiplicity = 2
 C                    -1.4956    0.       -0.01609 
 H                    -2.01812   0.9424    0.03753 
 H                    -2.01812  -0.9424    0.03753 
 C                    -0.02076   0.       -0.00877 
 F                     0.48468   0.        1.25517 
 F                     0.48735  -1.09005  -0.62347 
 F                     0.48735   1.09005  -0.62347 
 
 ITRead=  0  0  0  0  0  0  0
 MicOpt= -1 -1 -1 -1 -1 -1 -1
 NAtoms=      7 NQM=        7 NQMF=       0 NMMI=      0 NMMIF=      0
                NMic=       0 NMicF=      0.
                    Isotopes and Nuclear Properties:
 (Nuclear quadrupole moments (NQMom) in fm**2, nuclear magnetic moments (NMagM)
  in nuclear magnetons)

  Atom         1           2           3           4           5           6           7
 IAtWgt=          12           1           1          12          19          19          19
 AtmWgt=  12.0000000   1.0078250   1.0078250  12.0000000  18.9984032  18.9984032  18.9984032
 NucSpn=           0           1           1           0           1           1           1
 AtZEff=  -0.0000000  -0.0000000  -0.0000000  -0.0000000  -0.0000000  -0.0000000  -0.0000000
 NQMom=    0.0000000   0.0000000   0.0000000   0.0000000   0.0000000   0.0000000   0.0000000
 NMagM=    0.0000000   2.7928460   2.7928460   0.0000000   2.6288670   2.6288670   2.6288670
 AtZNuc=   6.0000000   1.0000000   1.0000000   6.0000000   9.0000000   9.0000000   9.0000000
 Leave Link  101 at Wed Sep  5 16:48:51 2018, MaxMem=   805306368 cpu:               0.3 elap:               0.0
 (Enter /home/g16/l202.exe)
                          Input orientation:                          
 ---------------------------------------------------------------------
 Center     Atomic      Atomic             Coordinates (Angstroms)
 Number     Number       Type             X           Y           Z
 ---------------------------------------------------------------------
      1          6           0       -1.495598    0.000000   -0.016094
      2          1           0       -2.018120    0.942402    0.037527
      3          1           0       -2.018120   -0.942402    0.037527
      4          6           0       -0.020764    0.000000   -0.008773
      5          9           0        0.484678    0.000000    1.255172
      6          9           0        0.487350   -1.090052   -0.623467
      7          9           0        0.487350    1.090052   -0.623467
 ---------------------------------------------------------------------
                    Distance matrix (angstroms):
                    1          2          3          4          5
     1  C    0.000000
     2  H    1.078900   0.000000
     3  H    1.078900   1.884804   0.000000
     4  C    1.474852   2.209003   2.209003   0.000000
     5  F    2.353213   2.938499   2.938499   1.361260   0.000000
     6  F    2.342904   3.293199   2.595399   1.350645   2.171982
     7  F    2.342904   2.595399   3.293199   1.350645   2.171982
                    6          7
     6  F    0.000000
     7  F    2.180104   0.000000
 Stoichiometry    C2H2F3(2)
 Framework group  CS[SG(C2F),X(H2F2)]
 Deg. of freedom     9
 Full point group                 CS      NOp   2
 Largest Abelian subgroup         CS      NOp   2
 Largest concise Abelian subgroup CS      NOp   2
                         Standard orientation:                         
 ---------------------------------------------------------------------
 Center     Atomic      Atomic             Coordinates (Angstroms)
 Number     Number       Type             X           Y           Z
 ---------------------------------------------------------------------
      1          6           0        0.453401    1.425307    0.000000
      2          1           0        0.555160    1.940622    0.942402
      3          1           0        0.555160    1.940622   -0.942402
      4          6           0        0.014469    0.017284    0.000000
      5          9           0       -1.342083   -0.095827   -0.000000
      6          9           0        0.453401   -0.648575   -1.090052
      7          9           0        0.453401   -0.648575    1.090052
 ---------------------------------------------------------------------
 Rotational constants (GHZ):           5.5148723           5.4404838           5.3125144
 Leave Link  202 at Wed Sep  5 16:48:51 2018, MaxMem=   805306368 cpu:               0.0 elap:               0.0
 (Enter /home/g16/l301.exe)
 Standard basis: 6-311+G(2d,p) (5D, 7F)
 Ernie: Thresh=  0.10000D-02 Tol=  0.10000D-05 Strict=F.
 There are    98 symmetry adapted cartesian basis functions of A'  symmetry.
 There are    59 symmetry adapted cartesian basis functions of A"  symmetry.
 There are    90 symmetry adapted basis functions of A'  symmetry.
 There are    57 symmetry adapted basis functions of A"  symmetry.
   147 basis functions,   226 primitive gaussians,   157 cartesian basis functions
    21 alpha electrons       20 beta electrons
       nuclear repulsion energy       190.7348575756 Hartrees.
 IExCor=  402 DFT=T Ex+Corr=B3LYP ExCW=0 ScaHFX=  0.200000
 ScaDFX=  0.800000  0.720000  1.000000  0.810000 ScalE2=  1.000000  1.000000
 IRadAn=      4 IRanWt=     -1 IRanGd=            0 ICorTp=0 IEmpDi=  4
 NAtoms=    7 NActive=    7 NUniq=    5 SFac= 1.96D+00 NAtFMM=   60 NAOKFM=F Big=F
 Integral buffers will be    131072 words long.
 Raffenetti 2 integral format.
 Two-electron integral symmetry is turned on.
 Leave Link  301 at Wed Sep  5 16:48:51 2018, MaxMem=   805306368 cpu:               0.1 elap:               0.0
 (Enter /home/g16/l302.exe)
 NPDir=0 NMtPBC=     1 NCelOv=     1 NCel=       1 NClECP=     1 NCelD=      1
         NCelK=      1 NCelE2=     1 NClLst=     1 CellRange=     0.0.
 One-electron integrals computed using PRISM.
 One-electron integral symmetry used in STVInt
 NBasis=   147 RedAO= T EigKep=  1.66D-04  NBF=    90    57
 NBsUse=   147 1.00D-06 EigRej= -1.00D+00 NBFU=    90    57
 Precomputing XC quadrature grid using
 IXCGrd= 4 IRadAn=           4 IRanWt=          -1 IRanGd=           0 AccXCQ= 1.00D-10.
 Generated NRdTot=       0 NPtTot=           0 NUsed=           0 NTot=          32
 NSgBfM=   157   157   157   157   157 MxSgAt=     7 MxSgA2=     7.
 Leave Link  302 at Wed Sep  5 16:48:51 2018, MaxMem=   805306368 cpu:               0.6 elap:               0.1
 (Enter /home/g16/l303.exe)
 DipDrv:  MaxL=1.
 Leave Link  303 at Wed Sep  5 16:48:51 2018, MaxMem=   805306368 cpu:               0.1 elap:               0.0
 (Enter /home/g16/l401.exe)
 ExpMin= 4.38D-02 ExpMax= 1.14D+04 ExpMxC= 1.72D+03 IAcc=2 IRadAn=         4 AccDes= 0.00D+00
 Harris functional with IExCor=  402 and IRadAn=      -1 diagonalized for initial guess.
 HarFok:  IExCor=  402 AccDes= 0.00D+00 IRadAn=        -1 IDoV= 1 UseB2=F ITyADJ=14
 ICtDFT=  3500011 ScaDFX=  1.000000  1.000000  1.000000  1.000000
 FoFCou: FMM=F IPFlag=           0 FMFlag=      100000 FMFlg1=           0
         NFxFlg=           0 DoJE=T BraDBF=F KetDBF=T FulRan=T
         wScrn=  0.000000 ICntrl=       500 IOpCl=  0 I1Cent=   200000004 NGrid=           0
         NMat0=    1 NMatS0=      1 NMatT0=    0 NMatD0=    1 NMtDS0=    0 NMtDT0=    0
 Petite list used in FoFCou.
 Harris En= -376.978033648819    
 JPrj=0 DoOrth=F DoCkMO=F.
 Initial guess orbital symmetries:
 Alpha Orbitals:
       Occupied  (A') (A") (A') (A') (A') (A') (A") (A') (A') (A')
                 (A") (A') (A') (A") (A') (A") (A') (A") (A') (A")
                 (A')
       Virtual   (A') (A") (A') (A") (A') (A') (A') (A') (A") (A')
                 (A') (A') (A") (A') (A") (A') (A') (A") (A') (A")
                 (A') (A") (A') (A') (A") (A') (A') (A") (A') (A')
                 (A") (A') (A') (A") (A') (A') (A") (A") (A') (A')
                 (A") (A') (A') (A") (A') (A') (A") (A') (A") (A')
                 (A') (A") (A') (A") (A') (A') (A") (A") (A') (A")
                 (A") (A') (A") (A') (A') (A') (A") (A') (A") (A')
                 (A") (A') (A") (A') (A") (A') (A") (A') (A') (A')
                 (A') (A") (A') (A") (A") (A') (A') (A') (A") (A')
                 (A') (A") (A') (A") (A") (A') (A') (A") (A') (A")
                 (A') (A") (A') (A') (A') (A") (A") (A') (A") (A')
                 (A') (A") (A") (A') (A") (A') (A') (A') (A") (A')
                 (A") (A') (A') (A') (A") (A')
 Beta  Orbitals:
       Occupied  (A') (A") (A') (A') (A') (A') (A") (A') (A') (A')
                 (A") (A') (A') (A") (A') (A") (A') (A") (A') (A")
       Virtual   (A') (A') (A") (A') (A") (A') (A') (A') (A') (A")
                 (A') (A') (A') (A") (A') (A") (A') (A') (A") (A')
                 (A") (A') (A") (A') (A') (A") (A') (A') (A") (A')
                 (A') (A") (A') (A') (A") (A') (A') (A") (A") (A')
                 (A') (A") (A') (A') (A") (A') (A') (A") (A') (A")
                 (A') (A') (A") (A') (A") (A') (A') (A") (A") (A')
                 (A") (A") (A') (A") (A') (A') (A') (A") (A') (A")
                 (A') (A") (A') (A") (A') (A") (A') (A") (A') (A')
                 (A') (A') (A") (A') (A") (A") (A') (A') (A') (A")
                 (A') (A') (A") (A') (A") (A") (A') (A') (A") (A')
                 (A") (A') (A") (A') (A') (A') (A") (A") (A') (A")
                 (A') (A') (A") (A") (A') (A") (A') (A') (A') (A")
                 (A') (A") (A') (A') (A') (A") (A')
 The electronic state of the initial guess is 2-A'.
 Initial guess <Sx>= 0.0000 <Sy>= 0.0000 <Sz>= 0.5000 <S**2>= 0.7500 S= 0.5000
 Leave Link  401 at Wed Sep  5 16:48:51 2018, MaxMem=   805306368 cpu:               0.8 elap:               0.1
 (Enter /home/g16/l502.exe)
 Keep R1 and R2 ints in memory in symmetry-blocked form, NReq=89075494.
 FoFCou: FMM=F IPFlag=           0 FMFlag=           0 FMFlg1=           0
         NFxFlg=           0 DoJE=F BraDBF=F KetDBF=F FulRan=T
         wScrn=  0.000000 ICntrl=       600 IOpCl=  0 I1Cent=           0 NGrid=           0
         NMat0=    1 NMatS0=  10878 NMatT0=    0 NMatD0=    1 NMtDS0=    0 NMtDT0=    0
 Petite list used in FoFCou.
 UHF open shell SCF:
 Using DIIS extrapolation, IDIIS=  1040.
 NGot=   805306368 LenX=   745863389 LenY=   745838299
 Requested convergence on RMS density matrix=1.00D-08 within 128 cycles.
 Requested convergence on MAX density matrix=1.00D-06.
 Requested convergence on             energy=1.00D-06.
 No special actions if energy rises.

 Cycle   1  Pass 1  IDiag  1:
 E= -376.931916033549    
 DIIS: error= 3.15D-02 at cycle   1 NSaved=   1.
 NSaved= 1 IEnMin= 1 EnMin= -376.931916033549     IErMin= 1 ErrMin= 3.15D-02
 ErrMax= 3.15D-02  0.00D+00 EMaxC= 1.00D-01 BMatC= 5.30D-01 BMatP= 5.30D-01
 IDIUse=3 WtCom= 6.85D-01 WtEn= 3.15D-01
 Coeff-Com:  0.100D+01
 Coeff-En:   0.100D+01
 Coeff:      0.100D+01
 Gap=     0.239 Goal=   None    Shift=    0.000
 Gap=     0.313 Goal=   None    Shift=    0.000
 GapD=    0.239 DampG=1.000 DampE=0.500 DampFc=0.5000 IDamp=-1.
 Damping current iteration by 5.00D-01
 RMSDP=2.68D-03 MaxDP=1.18D-01              OVMax= 1.12D-01

 Cycle   2  Pass 1  IDiag  1:
 E= -376.963621826732     Delta-E=       -0.031705793183 Rises=F Damp=T
 DIIS: error= 6.88D-03 at cycle   2 NSaved=   2.
 NSaved= 2 IEnMin= 2 EnMin= -376.963621826732     IErMin= 2 ErrMin= 6.88D-03
 ErrMax= 6.88D-03  0.00D+00 EMaxC= 1.00D-01 BMatC= 3.41D-02 BMatP= 5.30D-01
 IDIUse=3 WtCom= 9.31D-01 WtEn= 6.88D-02
 Coeff-Com:  0.131D+00 0.869D+00
 Coeff-En:   0.236D+00 0.764D+00
 Coeff:      0.139D+00 0.861D+00
 Gap=     0.274 Goal=   None    Shift=    0.000
 Gap=     0.288 Goal=   None    Shift=    0.000
 RMSDP=6.15D-04 MaxDP=2.27D-02 DE=-3.17D-02 OVMax= 7.97D-02

 Cycle   3  Pass 1  IDiag  1:
 E= -377.013904506907     Delta-E=       -0.050282680175 Rises=F Damp=F
 DIIS: error= 4.89D-03 at cycle   3 NSaved=   3.
 NSaved= 3 IEnMin= 3 EnMin= -377.013904506907     IErMin= 3 ErrMin= 4.89D-03
 ErrMax= 4.89D-03  0.00D+00 EMaxC= 1.00D-01 BMatC= 1.22D-02 BMatP= 3.41D-02
 IDIUse=3 WtCom= 9.51D-01 WtEn= 4.89D-02
 Coeff-Com: -0.977D-03 0.351D+00 0.650D+00
 Coeff-En:   0.000D+00 0.000D+00 0.100D+01
 Coeff:     -0.930D-03 0.334D+00 0.667D+00
 Gap=     0.294 Goal=   None    Shift=    0.000
 Gap=     0.276 Goal=   None    Shift=    0.000
 RMSDP=2.96D-04 MaxDP=1.53D-02 DE=-5.03D-02 OVMax= 2.45D-02

 Cycle   4  Pass 1  IDiag  1:
 E= -377.015702911609     Delta-E=       -0.001798404702 Rises=F Damp=F
 DIIS: error= 2.11D-03 at cycle   4 NSaved=   4.
 NSaved= 4 IEnMin= 4 EnMin= -377.015702911609     IErMin= 4 ErrMin= 2.11D-03
 ErrMax= 2.11D-03  0.00D+00 EMaxC= 1.00D-01 BMatC= 2.21D-03 BMatP= 1.22D-02
 IDIUse=3 WtCom= 9.79D-01 WtEn= 2.11D-02
 Coeff-Com: -0.200D-01 0.455D-01 0.335D+00 0.640D+00
 Coeff-En:   0.000D+00 0.000D+00 0.137D+00 0.863D+00
 Coeff:     -0.195D-01 0.445D-01 0.331D+00 0.644D+00
 Gap=     0.289 Goal=   None    Shift=    0.000
 Gap=     0.282 Goal=   None    Shift=    0.000
 RMSDP=1.05D-04 MaxDP=6.74D-03 DE=-1.80D-03 OVMax= 5.96D-03

 Cycle   5  Pass 1  IDiag  1:
 E= -377.016188913499     Delta-E=       -0.000486001890 Rises=F Damp=F
 DIIS: error= 2.40D-04 at cycle   5 NSaved=   5.
 NSaved= 5 IEnMin= 5 EnMin= -377.016188913499     IErMin= 5 ErrMin= 2.40D-04
 ErrMax= 2.40D-04  0.00D+00 EMaxC= 1.00D-01 BMatC= 2.98D-05 BMatP= 2.21D-03
 IDIUse=3 WtCom= 9.98D-01 WtEn= 2.40D-03
 Coeff-Com: -0.530D-02-0.123D-02 0.640D-01 0.159D+00 0.784D+00
 Coeff-En:   0.000D+00 0.000D+00 0.000D+00 0.000D+00 0.100D+01
 Coeff:     -0.529D-02-0.123D-02 0.638D-01 0.159D+00 0.784D+00
 Gap=     0.289 Goal=   None    Shift=    0.000
 Gap=     0.282 Goal=   None    Shift=    0.000
 RMSDP=1.86D-05 MaxDP=9.17D-04 DE=-4.86D-04 OVMax= 1.21D-03

 Cycle   6  Pass 1  IDiag  1:
 E= -377.016195825949     Delta-E=       -0.000006912450 Rises=F Damp=F
 DIIS: error= 1.04D-04 at cycle   6 NSaved=   6.
 NSaved= 6 IEnMin= 6 EnMin= -377.016195825949     IErMin= 6 ErrMin= 1.04D-04
 ErrMax= 1.04D-04  0.00D+00 EMaxC= 1.00D-01 BMatC= 8.59D-06 BMatP= 2.98D-05
 IDIUse=3 WtCom= 9.99D-01 WtEn= 1.04D-03
 Coeff-Com:  0.706D-04-0.586D-02-0.147D-01-0.131D-01 0.321D+00 0.712D+00
 Coeff-En:   0.000D+00 0.000D+00 0.000D+00 0.000D+00 0.000D+00 0.100D+01
 Coeff:      0.705D-04-0.585D-02-0.147D-01-0.131D-01 0.321D+00 0.712D+00
 Gap=     0.289 Goal=   None    Shift=    0.000
 Gap=     0.282 Goal=   None    Shift=    0.000
 RMSDP=8.84D-06 MaxDP=2.92D-04 DE=-6.91D-06 OVMax= 4.74D-04

 Cycle   7  Pass 1  IDiag  1:
 E= -377.016197687746     Delta-E=       -0.000001861797 Rises=F Damp=F
 DIIS: error= 7.14D-05 at cycle   7 NSaved=   7.
 NSaved= 7 IEnMin= 7 EnMin= -377.016197687746     IErMin= 7 ErrMin= 7.14D-05
 ErrMax= 7.14D-05  0.00D+00 EMaxC= 1.00D-01 BMatC= 2.14D-06 BMatP= 8.59D-06
 IDIUse=1 WtCom= 1.00D+00 WtEn= 0.00D+00
 Coeff-Com:  0.102D-02-0.249D-02-0.193D-01-0.369D-01 0.616D-02 0.362D+00
 Coeff-Com:  0.690D+00
 Coeff:      0.102D-02-0.249D-02-0.193D-01-0.369D-01 0.616D-02 0.362D+00
 Coeff:      0.690D+00
 Gap=     0.289 Goal=   None    Shift=    0.000
 Gap=     0.282 Goal=   None    Shift=    0.000
 RMSDP=4.05D-06 MaxDP=1.38D-04 DE=-1.86D-06 OVMax= 1.91D-04

 Cycle   8  Pass 1  IDiag  1:
 E= -377.016198053562     Delta-E=       -0.000000365816 Rises=F Damp=F
 DIIS: error= 2.82D-05 at cycle   8 NSaved=   8.
 NSaved= 8 IEnMin= 8 EnMin= -377.016198053562     IErMin= 8 ErrMin= 2.82D-05
 ErrMax= 2.82D-05  0.00D+00 EMaxC= 1.00D-01 BMatC= 4.61D-07 BMatP= 2.14D-06
 IDIUse=1 WtCom= 1.00D+00 WtEn= 0.00D+00
 Coeff-Com:  0.554D-03-0.235D-03-0.756D-02-0.174D-01-0.554D-01 0.775D-01
 Coeff-Com:  0.387D+00 0.616D+00
 Coeff:      0.554D-03-0.235D-03-0.756D-02-0.174D-01-0.554D-01 0.775D-01
 Coeff:      0.387D+00 0.616D+00
 Gap=     0.289 Goal=   None    Shift=    0.000
 Gap=     0.282 Goal=   None    Shift=    0.000
 RMSDP=1.52D-06 MaxDP=5.75D-05 DE=-3.66D-07 OVMax= 8.02D-05

 Cycle   9  Pass 1  IDiag  1:
 E= -377.016198140033     Delta-E=       -0.000000086471 Rises=F Damp=F
 DIIS: error= 3.57D-06 at cycle   9 NSaved=   9.
 NSaved= 9 IEnMin= 9 EnMin= -377.016198140033     IErMin= 9 ErrMin= 3.57D-06
 ErrMax= 3.57D-06  0.00D+00 EMaxC= 1.00D-01 BMatC= 4.59D-09 BMatP= 4.61D-07
 IDIUse=1 WtCom= 1.00D+00 WtEn= 0.00D+00
 Coeff-Com: -0.314D-04 0.167D-03 0.116D-02 0.210D-02-0.398D-02-0.228D-01
 Coeff-Com: -0.520D-01-0.489D-02 0.108D+01
 Coeff:     -0.314D-04 0.167D-03 0.116D-02 0.210D-02-0.398D-02-0.228D-01
 Coeff:     -0.520D-01-0.489D-02 0.108D+01
 Gap=     0.289 Goal=   None    Shift=    0.000
 Gap=     0.282 Goal=   None    Shift=    0.000
 RMSDP=3.56D-07 MaxDP=1.27D-05 DE=-8.65D-08 OVMax= 1.89D-05

 Cycle  10  Pass 1  IDiag  1:
 E= -377.016198142305     Delta-E=       -0.000000002272 Rises=F Damp=F
 DIIS: error= 5.13D-07 at cycle  10 NSaved=  10.
 NSaved=10 IEnMin=10 EnMin= -377.016198142305     IErMin=10 ErrMin= 5.13D-07
 ErrMax= 5.13D-07  0.00D+00 EMaxC= 1.00D-01 BMatC= 1.04D-10 BMatP= 4.59D-09
 IDIUse=1 WtCom= 1.00D+00 WtEn= 0.00D+00
 Coeff-Com: -0.121D-04 0.547D-05 0.170D-03 0.398D-03 0.161D-02-0.296D-02
 Coeff-Com: -0.664D-02-0.860D-02-0.341D-01 0.105D+01
 Coeff:     -0.121D-04 0.547D-05 0.170D-03 0.398D-03 0.161D-02-0.296D-02
 Coeff:     -0.664D-02-0.860D-02-0.341D-01 0.105D+01
 Gap=     0.289 Goal=   None    Shift=    0.000
 Gap=     0.282 Goal=   None    Shift=    0.000
 RMSDP=5.84D-08 MaxDP=1.43D-06 DE=-2.27D-09 OVMax= 4.32D-06

 Cycle  11  Pass 1  IDiag  1:
 E= -377.016198142351     Delta-E=       -0.000000000046 Rises=F Damp=F
 DIIS: error= 1.16D-07 at cycle  11 NSaved=  11.
 NSaved=11 IEnMin=11 EnMin= -377.016198142351     IErMin=11 ErrMin= 1.16D-07
 ErrMax= 1.16D-07  0.00D+00 EMaxC= 1.00D-01 BMatC= 7.57D-12 BMatP= 1.04D-10
 IDIUse=1 WtCom= 1.00D+00 WtEn= 0.00D+00
 Coeff-Com: -0.552D-06-0.408D-05-0.221D-04-0.157D-04 0.262D-03 0.363D-03
 Coeff-Com:  0.106D-02-0.220D-03-0.428D-01 0.154D+00 0.888D+00
 Coeff:     -0.552D-06-0.408D-05-0.221D-04-0.157D-04 0.262D-03 0.363D-03
 Coeff:      0.106D-02-0.220D-03-0.428D-01 0.154D+00 0.888D+00
 Gap=     0.289 Goal=   None    Shift=    0.000
 Gap=     0.282 Goal=   None    Shift=    0.000
 RMSDP=1.32D-08 MaxDP=5.01D-07 DE=-4.57D-11 OVMax= 5.04D-07

 Cycle  12  Pass 1  IDiag  1:
 E= -377.016198142354     Delta-E=       -0.000000000003 Rises=F Damp=F
 DIIS: error= 3.01D-08 at cycle  12 NSaved=  12.
 NSaved=12 IEnMin=12 EnMin= -377.016198142354     IErMin=12 ErrMin= 3.01D-08
 ErrMax= 3.01D-08  0.00D+00 EMaxC= 1.00D-01 BMatC= 5.69D-13 BMatP= 7.57D-12
 IDIUse=1 WtCom= 1.00D+00 WtEn= 0.00D+00
 Coeff-Com:  0.978D-06-0.113D-05-0.171D-04-0.348D-04-0.112D-03 0.301D-03
 Coeff-Com:  0.704D-03 0.533D-03-0.154D-02-0.710D-01 0.103D+00 0.968D+00
 Coeff:      0.978D-06-0.113D-05-0.171D-04-0.348D-04-0.112D-03 0.301D-03
 Coeff:      0.704D-03 0.533D-03-0.154D-02-0.710D-01 0.103D+00 0.968D+00
 Gap=     0.289 Goal=   None    Shift=    0.000
 Gap=     0.282 Goal=   None    Shift=    0.000
 RMSDP=4.58D-09 MaxDP=1.66D-07 DE=-2.96D-12 OVMax= 1.93D-07

 SCF Done:  E(UB3LYP) =  -377.016198142     A.U. after   12 cycles
            NFock= 12  Conv=0.46D-08     -V/T= 2.0029
 <Sx>= 0.0000 <Sy>= 0.0000 <Sz>= 0.5000 <S**2>= 0.7536 S= 0.5018
 <L.S>=  0.00000000000    
 KE= 3.759152373169D+02 PE=-1.276184963006D+03 EE= 3.325186699708D+02
 Annihilation of the first spin contaminant:
 S**2 before annihilation     0.7536,   after     0.7500
 Leave Link  502 at Wed Sep  5 16:48:53 2018, MaxMem=   805306368 cpu:              17.6 elap:               2.4
 (Enter /home/g16/l601.exe)
 Copying SCF densities to generalized density rwf, IOpCl= 1 IROHF=0.

 **********************************************************************

            Population analysis using the SCF density.

 **********************************************************************

 Orbital symmetries:
 Alpha Orbitals:
       Occupied  (A") (A') (A') (A') (A') (A') (A") (A') (A') (A')
                 (A") (A') (A') (A") (A') (A") (A') (A") (A") (A')
                 (A')
       Virtual   (A') (A') (A") (A') (A") (A') (A') (A') (A") (A')
                 (A') (A') (A") (A') (A") (A') (A') (A") (A') (A")
                 (A') (A") (A') (A') (A") (A') (A') (A") (A') (A')
                 (A") (A') (A') (A") (A') (A') (A") (A") (A') (A')
                 (A") (A') (A') (A") (A') (A') (A") (A') (A") (A')
                 (A') (A") (A') (A") (A') (A') (A") (A") (A') (A")
                 (A") (A') (A") (A') (A') (A') (A") (A') (A") (A')
                 (A") (A") (A') (A') (A") (A') (A") (A') (A') (A')
                 (A') (A") (A') (A") (A') (A") (A') (A") (A') (A')
                 (A') (A") (A') (A") (A") (A') (A') (A") (A') (A")
                 (A') (A") (A') (A') (A') (A") (A") (A') (A") (A')
                 (A") (A') (A") (A') (A") (A') (A') (A') (A") (A')
                 (A") (A') (A') (A') (A") (A')
 Beta  Orbitals:
       Occupied  (A") (A') (A') (A') (A') (A') (A") (A') (A') (A')
                 (A") (A') (A') (A") (A') (A") (A') (A") (A") (A')
       Virtual   (A') (A') (A') (A") (A") (A') (A') (A') (A") (A')
                 (A') (A') (A') (A") (A") (A') (A') (A') (A") (A')
                 (A") (A') (A") (A') (A') (A") (A') (A') (A") (A')
                 (A') (A") (A') (A') (A") (A') (A') (A") (A") (A')
                 (A') (A") (A') (A") (A') (A') (A') (A") (A') (A")
                 (A') (A') (A") (A') (A") (A') (A') (A") (A') (A")
                 (A") (A") (A') (A") (A') (A') (A') (A") (A') (A")
                 (A') (A") (A") (A') (A') (A") (A') (A") (A') (A')
                 (A') (A") (A') (A') (A') (A") (A") (A') (A") (A')
                 (A') (A') (A") (A') (A") (A") (A') (A') (A") (A')
                 (A") (A') (A") (A') (A') (A') (A") (A") (A') (A")
                 (A') (A") (A') (A") (A') (A") (A') (A') (A') (A")
                 (A') (A") (A') (A') (A') (A") (A')
 The electronic state is 2-A'.
 Alpha  occ. eigenvalues --  -24.72018 -24.72017 -24.71705 -10.43802 -10.23344
 Alpha  occ. eigenvalues --   -1.32341  -1.23804  -1.23359  -0.80792  -0.68354
 Alpha  occ. eigenvalues --   -0.60897  -0.60560  -0.56618  -0.49123  -0.48185
 Alpha  occ. eigenvalues --   -0.47236  -0.44461  -0.43340  -0.42233  -0.41712
 Alpha  occ. eigenvalues --   -0.28409
 Alpha virt. eigenvalues --    0.00490   0.03759   0.04023   0.05614   0.06255
 Alpha virt. eigenvalues --    0.07813   0.07856   0.12161   0.12724   0.13893
 Alpha virt. eigenvalues --    0.15854   0.19381   0.21259   0.22792   0.23293
 Alpha virt. eigenvalues --    0.24410   0.27113   0.27972   0.28982   0.31642
 Alpha virt. eigenvalues --    0.33575   0.33914   0.34734   0.35645   0.38513
 Alpha virt. eigenvalues --    0.39631   0.43814   0.49073   0.51747   0.53959
 Alpha virt. eigenvalues --    0.57205   0.59433   0.62070   0.66070   0.70667
 Alpha virt. eigenvalues --    0.75142   0.76129   0.90018   0.92579   0.95238
 Alpha virt. eigenvalues --    1.08506   1.12354   1.13524   1.14777   1.19936
 Alpha virt. eigenvalues --    1.25334   1.26220   1.29992   1.32262   1.36739
 Alpha virt. eigenvalues --    1.37847   1.38517   1.46718   1.47414   1.48541
 Alpha virt. eigenvalues --    1.65878   1.73178   1.87397   1.87879   1.92794
 Alpha virt. eigenvalues --    1.95153   1.97933   1.98151   1.98771   2.05631
 Alpha virt. eigenvalues --    2.07074   2.09603   2.10651   2.13907   2.20436
 Alpha virt. eigenvalues --    2.29501   2.40370   2.42257   2.52321   2.56700
 Alpha virt. eigenvalues --    2.58121   2.61278   2.67681   2.71843   2.79785
 Alpha virt. eigenvalues --    2.98900   3.00565   3.13441   3.22488   3.27864
 Alpha virt. eigenvalues --    3.28571   3.39998   3.44745   3.44848   3.46361
 Alpha virt. eigenvalues --    3.50413   3.55017   3.65483   4.05559   4.17868
 Alpha virt. eigenvalues --    4.17974   4.46890   6.27306   6.27816   6.33117
 Alpha virt. eigenvalues --    6.34683   6.35566   6.36073   6.42198   6.69023
 Alpha virt. eigenvalues --    6.71324   8.99234   9.01401   9.01694   9.11965
 Alpha virt. eigenvalues --    9.12380   9.12431   9.13181   9.23494   9.24354
 Alpha virt. eigenvalues --    9.40554   9.56105   9.58359   9.61895   9.74577
 Alpha virt. eigenvalues --    9.76338  23.79535  23.88839  66.79955  66.80387
 Alpha virt. eigenvalues --   66.84075
  Beta  occ. eigenvalues --  -24.71963 -24.71963 -24.71530 -10.43871 -10.21907
  Beta  occ. eigenvalues --   -1.32169  -1.23692  -1.23046  -0.78389  -0.67316
  Beta  occ. eigenvalues --   -0.60789  -0.60095  -0.55640  -0.48649  -0.47873
  Beta  occ. eigenvalues --   -0.46767  -0.44085  -0.43081  -0.42062  -0.40884
  Beta virt. eigenvalues --   -0.12664   0.00801   0.03755   0.04112   0.06251
  Beta virt. eigenvalues --    0.06591   0.07934   0.08115   0.12738   0.12993
  Beta virt. eigenvalues --    0.14399   0.17021   0.19515   0.21333   0.23481
  Beta virt. eigenvalues --    0.23716   0.24872   0.27225   0.28052   0.29034
  Beta virt. eigenvalues --    0.31596   0.33700   0.33958   0.34890   0.35961
  Beta virt. eigenvalues --    0.38855   0.40525   0.44808   0.49584   0.55050
  Beta virt. eigenvalues --    0.55833   0.58408   0.60537   0.62727   0.67089
  Beta virt. eigenvalues --    0.72557   0.77051   0.77407   0.90753   0.93173
  Beta virt. eigenvalues --    0.96835   1.08581   1.13519   1.15004   1.15121
  Beta virt. eigenvalues --    1.20222   1.25727   1.26319   1.30338   1.32296
  Beta virt. eigenvalues --    1.37200   1.38098   1.38554   1.46996   1.47456
  Beta virt. eigenvalues --    1.48709   1.66869   1.73132   1.87985   1.88193
  Beta virt. eigenvalues --    1.92856   1.95250   1.98028   1.98226   1.98881
  Beta virt. eigenvalues --    2.05724   2.07244   2.09729   2.11623   2.13942
  Beta virt. eigenvalues --    2.21038   2.29891   2.40647   2.43664   2.52637
  Beta virt. eigenvalues --    2.56755   2.58465   2.61520   2.70463   2.72085
  Beta virt. eigenvalues --    2.80496   3.00826   3.02618   3.16029   3.28924
  Beta virt. eigenvalues --    3.29270   3.29789   3.43896   3.44889   3.46493
  Beta virt. eigenvalues --    3.47064   3.51273   3.54938   3.71047   4.07137
  Beta virt. eigenvalues --    4.17918   4.18223   4.48083   6.27441   6.27978
  Beta virt. eigenvalues --    6.33208   6.34887   6.35652   6.36287   6.42401
  Beta virt. eigenvalues --    6.69253   6.71406   8.99525   9.01602   9.01851
  Beta virt. eigenvalues --    9.12098   9.12604   9.12777   9.13331   9.23873
  Beta virt. eigenvalues --    9.24570   9.40775   9.56352   9.58617   9.62101
  Beta virt. eigenvalues --    9.74895   9.76440  23.80306  23.89682  66.80080
  Beta virt. eigenvalues --   66.80440  66.84173
     Alpha Molecular Orbital Coefficients:
                           1         2         3         4         5
                           O         O         O         O         O
     Eigenvalues --   -24.72018 -24.72017 -24.71705 -10.43802 -10.23344
   1 1   C  1S          0.00000   0.00000  -0.00000   0.00044   0.56258
   2        2S          0.00000  -0.00001   0.00001   0.00033   0.46335
   3        2PX         0.00000  -0.00000  -0.00003  -0.00015  -0.00007
   4        2PY         0.00000  -0.00005  -0.00001  -0.00052  -0.00034
   5        2PZ        -0.00001   0.00000   0.00000   0.00000   0.00000
   6        3S          0.00000   0.00035   0.00022   0.00078   0.02010
   7        3PX         0.00000   0.00001   0.00005   0.00040  -0.00016
   8        3PY         0.00000   0.00010  -0.00004   0.00159   0.00073
   9        3PZ         0.00003   0.00000   0.00000   0.00000   0.00000
  10        4S          0.00000  -0.00185  -0.00194   0.00335   0.00026
  11        4PX         0.00000  -0.00038   0.00126   0.00025   0.00039
  12        4PY         0.00000   0.00130   0.00040   0.00078   0.00065
  13        4PZ         0.00270   0.00000   0.00000   0.00000   0.00000
  14        5S          0.00000   0.00834   0.00636  -0.00561   0.00020
  15        5PX         0.00000  -0.00049  -0.00076   0.00055  -0.00016
  16        5PY         0.00000  -0.00212  -0.00145   0.00160  -0.00147
  17        5PZ         0.00012   0.00000   0.00000   0.00000   0.00000
  18        6D 0        0.00000  -0.00003   0.00001   0.00004   0.00019
  19        6D+1        0.00004   0.00000   0.00000   0.00000   0.00000
  20        6D-1       -0.00000   0.00000   0.00000   0.00000   0.00000
  21        6D+2        0.00000  -0.00005  -0.00002   0.00006  -0.00018
  22        6D-2        0.00000   0.00000   0.00006  -0.00003   0.00013
  23        7D 0        0.00000  -0.00001  -0.00019   0.00227   0.00327
  24        7D+1       -0.00000   0.00000   0.00000   0.00000   0.00000
  25        7D-1       -0.00015   0.00000   0.00000   0.00000   0.00000
  26        7D+2        0.00000   0.00035  -0.00011   0.00091  -0.00063
  27        7D-2        0.00000   0.00008  -0.00038  -0.00069   0.00016
  28 2   H  1S          0.00007   0.00001  -0.00004  -0.00012   0.00018
  29        2S         -0.00065   0.00017   0.00052  -0.00205  -0.00641
  30        3S         -0.00066  -0.00024  -0.00023   0.00045   0.00332
  31        4PX        -0.00002   0.00001  -0.00003   0.00012   0.00030
  32        4PY        -0.00001  -0.00000  -0.00010   0.00056   0.00158
  33        4PZ         0.00003  -0.00001  -0.00003   0.00024   0.00215
  34 3   H  1S         -0.00007   0.00001  -0.00004  -0.00012   0.00018
  35        2S          0.00065   0.00017   0.00052  -0.00205  -0.00641
  36        3S          0.00066  -0.00024  -0.00023   0.00045   0.00332
  37        4PX         0.00002   0.00001  -0.00003   0.00012   0.00030
  38        4PY         0.00001  -0.00000  -0.00010   0.00056   0.00158
  39        4PZ         0.00003   0.00001   0.00003  -0.00024  -0.00215
  40 4   C  1S          0.00000   0.00004   0.00003   0.56340  -0.00047
  41        2S          0.00000  -0.00017  -0.00011   0.46318  -0.00046
  42        2PX         0.00000  -0.00010   0.00017  -0.00034   0.00030
  43        2PY         0.00000   0.00009  -0.00000  -0.00128   0.00061
  44        2PZ         0.00019   0.00000   0.00000   0.00000   0.00000
  45        3S          0.00000  -0.00016  -0.00025   0.01833   0.00135
  46        3PX         0.00000   0.00094  -0.00177   0.00007  -0.00074
  47        3PY         0.00000  -0.00112  -0.00009   0.00058  -0.00108
  48        3PZ        -0.00208   0.00000   0.00000   0.00000   0.00000
  49        4S          0.00000   0.01190   0.00841  -0.01081  -0.00037
  50        4PX         0.00000   0.00215  -0.00461  -0.00121  -0.00197
  51        4PY         0.00000  -0.00324  -0.00014  -0.00195  -0.00528
  52        4PZ        -0.00652   0.00000   0.00000   0.00000   0.00000
  53        5S          0.00000  -0.00945  -0.00713   0.00473  -0.00147
  54        5PX         0.00000  -0.00098  -0.00020   0.00006  -0.00054
  55        5PY         0.00000  -0.00238  -0.00195   0.00050  -0.00077
  56        5PZ         0.00008   0.00000   0.00000   0.00000   0.00000
  57        6D 0        0.00000   0.00008  -0.00008   0.00013   0.00006
  58        6D+1       -0.00006   0.00000   0.00000   0.00000   0.00000
  59        6D-1        0.00018   0.00000   0.00000   0.00000   0.00000
  60        6D+2        0.00000  -0.00004   0.00015  -0.00004  -0.00019
  61        6D-2        0.00000  -0.00008   0.00004  -0.00001   0.00012
  62        7D 0        0.00000   0.00113  -0.00078  -0.00045   0.00016
  63        7D+1       -0.00127   0.00000   0.00000   0.00000   0.00000
  64        7D-1        0.00152   0.00000   0.00000   0.00000   0.00000
  65        7D+2        0.00000  -0.00031   0.00115   0.00075   0.00301
  66        7D-2        0.00000  -0.00042   0.00011  -0.00028  -0.00179
  67 5   F  1S          0.00000  -0.00021   0.54766  -0.00003   0.00000
  68        2S          0.00000  -0.00019   0.47186  -0.00009   0.00000
  69        2PX         0.00000  -0.00001   0.00084   0.00015   0.00007
  70        2PY         0.00000  -0.00001   0.00008   0.00002   0.00005
  71        2PZ         0.00001   0.00000   0.00000   0.00000   0.00000
  72        3S          0.00000   0.00014   0.01299   0.00086   0.00012
  73        3PX         0.00000   0.00006   0.00005   0.00000  -0.00033
  74        3PY         0.00000   0.00001  -0.00000  -0.00003  -0.00022
  75        3PZ        -0.00004   0.00000   0.00000   0.00000   0.00000
  76        4S          0.00000  -0.00033  -0.01168  -0.00279  -0.00279
  77        4PX         0.00000  -0.00026  -0.00353  -0.00222  -0.00097
  78        4PY         0.00000   0.00026  -0.00032  -0.00011   0.00006
  79        4PZ         0.00045   0.00000   0.00000   0.00000   0.00000
  80        5S          0.00000  -0.00124   0.00190   0.00201   0.00074
  81        5PX         0.00000  -0.00094   0.00054   0.00178   0.00076
  82        5PY         0.00000   0.00052  -0.00003   0.00080   0.00075
  83        5PZ         0.00084   0.00000   0.00000   0.00000   0.00000
  84        6D 0        0.00000   0.00001  -0.00013  -0.00014   0.00004
  85        6D+1       -0.00003   0.00000   0.00000   0.00000   0.00000
  86        6D-1        0.00001   0.00000   0.00000   0.00000   0.00000
  87        6D+2        0.00000  -0.00000   0.00021   0.00024   0.00005
  88        6D-2        0.00000  -0.00003   0.00006   0.00004  -0.00001
  89        7D 0        0.00000  -0.00006   0.00038   0.00059  -0.00009
  90        7D+1        0.00012   0.00000   0.00000   0.00000   0.00000
  91        7D-1       -0.00005   0.00000   0.00000   0.00000   0.00000
  92        7D+2        0.00000   0.00002  -0.00066  -0.00102  -0.00028
  93        7D-2        0.00000   0.00012  -0.00013  -0.00017  -0.00003
  94 6   F  1S          0.38726   0.38726   0.00015  -0.00003   0.00000
  95        2S          0.33366   0.33365   0.00012  -0.00010  -0.00000
  96        2PX        -0.00020  -0.00020   0.00000  -0.00005  -0.00000
  97        2PY         0.00032   0.00031  -0.00000   0.00006   0.00002
  98        2PZ         0.00050   0.00049  -0.00000   0.00011  -0.00000
  99        3S          0.00914   0.00924   0.00011   0.00089   0.00008
 100        3PX        -0.00001  -0.00001  -0.00003  -0.00002   0.00001
 101        3PY        -0.00000   0.00000   0.00002   0.00008  -0.00010
 102        3PZ        -0.00002   0.00004   0.00002   0.00009   0.00003
 103        4S         -0.00855  -0.00857  -0.00034  -0.00192  -0.00070
 104        4PX         0.00093   0.00081   0.00039   0.00049  -0.00020
 105        4PY        -0.00147  -0.00117  -0.00001  -0.00088   0.00008
 106        4PZ        -0.00194  -0.00227  -0.00006  -0.00168  -0.00071
 107        5S          0.00140   0.00076  -0.00068   0.00214  -0.00134
 108        5PX         0.00004  -0.00022   0.00082  -0.00014   0.00072
 109        5PY         0.00002   0.00032  -0.00006   0.00147   0.00025
 110        5PZ         0.00092  -0.00032  -0.00033   0.00130  -0.00011
 111        6D 0        0.00007   0.00009  -0.00001   0.00015   0.00005
 112        6D+1       -0.00008  -0.00007  -0.00001  -0.00012   0.00004
 113        6D-1        0.00014   0.00011  -0.00001   0.00019   0.00001
 114        6D+2       -0.00002  -0.00002   0.00002  -0.00003   0.00004
 115        6D-2       -0.00005  -0.00004  -0.00001  -0.00007  -0.00002
 116        7D 0       -0.00021  -0.00031   0.00005  -0.00062  -0.00022
 117        7D+1        0.00027   0.00023   0.00006   0.00048  -0.00018
 118        7D-1       -0.00046  -0.00033   0.00006  -0.00081  -0.00009
 119        7D+2        0.00008   0.00005  -0.00009   0.00011  -0.00017
 120        7D-2        0.00017   0.00015   0.00002   0.00028   0.00007
 121 7   F  1S         -0.38726   0.38726   0.00015  -0.00003   0.00000
 122        2S         -0.33366   0.33365   0.00012  -0.00010  -0.00000
 123        2PX         0.00020  -0.00020   0.00000  -0.00005  -0.00000
 124        2PY        -0.00032   0.00031  -0.00000   0.00006   0.00002
 125        2PZ         0.00050  -0.00049   0.00000  -0.00011   0.00000
 126        3S         -0.00914   0.00924   0.00011   0.00089   0.00008
 127        3PX         0.00001  -0.00001  -0.00003  -0.00002   0.00001
 128        3PY         0.00000   0.00000   0.00002   0.00008  -0.00010
 129        3PZ        -0.00002  -0.00004  -0.00002  -0.00009  -0.00003
 130        4S          0.00855  -0.00857  -0.00034  -0.00192  -0.00070
 131        4PX        -0.00093   0.00081   0.00039   0.00049  -0.00020
 132        4PY         0.00147  -0.00117  -0.00001  -0.00088   0.00008
 133        4PZ        -0.00194   0.00227   0.00006   0.00168   0.00071
 134        5S         -0.00140   0.00076  -0.00068   0.00214  -0.00134
 135        5PX        -0.00004  -0.00022   0.00082  -0.00014   0.00072
 136        5PY        -0.00002   0.00032  -0.00006   0.00147   0.00025
 137        5PZ         0.00092   0.00032   0.00033  -0.00130   0.00011
 138        6D 0       -0.00007   0.00009  -0.00001   0.00015   0.00005
 139        6D+1       -0.00008   0.00007   0.00001   0.00012  -0.00004
 140        6D-1        0.00014  -0.00011   0.00001  -0.00019  -0.00001
 141        6D+2        0.00002  -0.00002   0.00002  -0.00003   0.00004
 142        6D-2        0.00005  -0.00004  -0.00001  -0.00007  -0.00002
 143        7D 0        0.00021  -0.00031   0.00005  -0.00062  -0.00022
 144        7D+1        0.00027  -0.00023  -0.00006  -0.00048   0.00018
 145        7D-1       -0.00046   0.00033  -0.00006   0.00081   0.00009
 146        7D+2       -0.00008   0.00005  -0.00009   0.00011  -0.00017
 147        7D-2       -0.00017   0.00015   0.00002   0.00028   0.00007
                           6         7         8         9        10
                           O         O         O         O         O
     Eigenvalues --    -1.32341  -1.23804  -1.23359  -0.80792  -0.68354
   1 1   C  1S         -0.00647   0.00000  -0.00012  -0.09088   0.05298
   2        2S         -0.00997   0.00000  -0.00033  -0.14183   0.08301
   3        2PX        -0.00208   0.00000  -0.00348  -0.01380  -0.00645
   4        2PY        -0.00696   0.00000   0.00070  -0.03832  -0.02876
   5        2PZ         0.00000  -0.00351   0.00000   0.00000   0.00000
   6        3S          0.02265   0.00000   0.00048   0.38040  -0.22487
   7        3PX        -0.00580   0.00000  -0.00569  -0.02117  -0.01042
   8        3PY        -0.01879   0.00000   0.00283  -0.06337  -0.04270
   9        3PZ         0.00000  -0.00645   0.00000   0.00000   0.00000
  10        4S          0.06068   0.00000   0.01624   0.20230  -0.13421
  11        4PX        -0.00873   0.00000  -0.01297  -0.00609  -0.00783
  12        4PY        -0.02904   0.00000   0.00592  -0.01824  -0.02940
  13        4PZ         0.00000  -0.03083   0.00000   0.00000   0.00000
  14        5S         -0.11076   0.00000  -0.00930   0.03253   0.13072
  15        5PX         0.00939   0.00000   0.00460  -0.00258  -0.00969
  16        5PY         0.02936   0.00000   0.00044  -0.00364  -0.03288
  17        5PZ         0.00000  -0.00146   0.00000   0.00000   0.00000
  18        6D 0       -0.00105   0.00000  -0.00057  -0.00271  -0.00309
  19        6D+1        0.00000  -0.00015   0.00000   0.00000   0.00000
  20        6D-1        0.00000   0.00129   0.00000   0.00000   0.00000
  21        6D+2       -0.00101   0.00000   0.00068  -0.00435  -0.00122
  22        6D-2        0.00069   0.00000   0.00074   0.00304   0.00089
  23        7D 0       -0.00220   0.00000   0.00590  -0.01004  -0.00231
  24        7D+1        0.00000   0.00140   0.00000   0.00000   0.00000
  25        7D-1        0.00000  -0.00154   0.00000   0.00000   0.00000
  26        7D+2       -0.00539   0.00000   0.00195  -0.00104  -0.00705
  27        7D-2        0.00356   0.00000   0.00414   0.00128   0.00493
  28 2   H  1S          0.00167  -0.00114   0.00007   0.05711  -0.05550
  29        2S         -0.00178   0.00818  -0.00803   0.07199  -0.06790
  30        3S          0.00268   0.00827  -0.00038  -0.01002  -0.00317
  31        4PX        -0.00001  -0.00040   0.00038  -0.00188   0.00066
  32        4PY        -0.00014   0.00075   0.00158  -0.00766   0.00406
  33        4PZ        -0.00049  -0.00081   0.00059  -0.01075   0.00904
  34 3   H  1S          0.00167   0.00114   0.00007   0.05711  -0.05550
  35        2S         -0.00178  -0.00818  -0.00803   0.07199  -0.06790
  36        3S          0.00268  -0.00827  -0.00038  -0.01002  -0.00317
  37        4PX        -0.00001   0.00040   0.00038  -0.00188   0.00066
  38        4PY        -0.00014  -0.00075   0.00158  -0.00766   0.00406
  39        4PZ         0.00049  -0.00081  -0.00059   0.01075  -0.00904
  40 4   C  1S         -0.05557   0.00000  -0.00086  -0.06486  -0.05952
  41        2S         -0.08516   0.00000  -0.00144  -0.10187  -0.09521
  42        2PX        -0.00740   0.00000  -0.06612   0.02464  -0.02347
  43        2PY        -0.03156   0.00000   0.02001   0.08015  -0.08389
  44        2PZ         0.00000  -0.07091   0.00000   0.00000   0.00000
  45        3S          0.23780   0.00000   0.00563   0.29567   0.29837
  46        3PX        -0.01043   0.00000  -0.08029   0.03530  -0.03626
  47        3PY        -0.03920   0.00000   0.02555   0.11498  -0.12695
  48        3PZ         0.00000  -0.08647   0.00000   0.00000   0.00000
  49        4S         -0.14282   0.00000  -0.00358   0.14899   0.05661
  50        4PX         0.00293   0.00000   0.01622   0.00856  -0.00574
  51        4PY         0.01469   0.00000  -0.00985   0.04814  -0.02918
  52        4PZ         0.00000   0.03130   0.00000   0.00000   0.00000
  53        5S          0.11896   0.00000   0.01012  -0.03560  -0.16988
  54        5PX         0.01001   0.00000  -0.00538   0.00184  -0.01254
  55        5PY         0.03311   0.00000   0.00458   0.00467  -0.04025
  56        5PZ         0.00000  -0.00177   0.00000   0.00000   0.00000
  57        6D 0        0.00374   0.00000  -0.01216  -0.00337   0.00240
  58        6D+1        0.00000  -0.00991   0.00000   0.00000   0.00000
  59        6D-1        0.00000   0.01583   0.00000   0.00000   0.00000
  60        6D+2        0.00375   0.00000   0.01231  -0.00467   0.00268
  61        6D-2       -0.00303   0.00000   0.00586   0.00318  -0.00220
  62        7D 0        0.00031   0.00000  -0.00480  -0.00367   0.00104
  63        7D+1        0.00000  -0.00125   0.00000   0.00000   0.00000
  64        7D-1        0.00000   0.00554   0.00000   0.00000   0.00000
  65        7D+2        0.00215   0.00000   0.00701  -0.00653   0.00269
  66        7D-2       -0.00137   0.00000   0.00413   0.00487  -0.00180
  67 5   F  1S         -0.06171   0.00000  -0.10395   0.02303   0.02631
  68        2S         -0.09955   0.00000  -0.16822   0.03767   0.04313
  69        2PX         0.03011   0.00000   0.03150   0.04110   0.11220
  70        2PY         0.00063   0.00000   0.00552   0.02432  -0.02154
  71        2PZ         0.00000  -0.00624   0.00000   0.00000   0.00000
  72        3S          0.29065   0.00000   0.49934  -0.11739  -0.13593
  73        3PX         0.04801   0.00000   0.05259   0.05894   0.16199
  74        3PY         0.00098   0.00000   0.00858   0.03510  -0.03102
  75        3PZ         0.00000  -0.00931   0.00000   0.00000   0.00000
  76        4S          0.24964   0.00000   0.40156  -0.10744  -0.12848
  77        4PX         0.04700   0.00000   0.04318   0.03903   0.12233
  78        4PY         0.00113   0.00000   0.00774   0.02597  -0.02588
  79        4PZ         0.00000  -0.00762   0.00000   0.00000   0.00000
  80        5S          0.00790   0.00000  -0.03201  -0.02055   0.00537
  81        5PX         0.00228   0.00000  -0.01800  -0.01013   0.00490
  82        5PY        -0.00479   0.00000   0.00257  -0.00941   0.00149
  83        5PZ         0.00000  -0.00811   0.00000   0.00000   0.00000
  84        6D 0       -0.00082   0.00000  -0.00107  -0.00059  -0.00127
  85        6D+1        0.00000  -0.00062   0.00000   0.00000   0.00000
  86        6D-1        0.00000   0.00012   0.00000   0.00000   0.00000
  87        6D+2        0.00144   0.00000   0.00155   0.00082   0.00247
  88        6D-2        0.00012   0.00000   0.00060   0.00084  -0.00050
  89        7D 0       -0.00514   0.00000  -0.00651  -0.00236  -0.00518
  90        7D+1        0.00000  -0.00115   0.00000   0.00000   0.00000
  91        7D-1        0.00000  -0.00016   0.00000   0.00000   0.00000
  92        7D+2        0.00886   0.00000   0.01092   0.00269   0.00957
  93        7D-2        0.00092   0.00000   0.00269   0.00459  -0.00284
  94 6   F  1S         -0.06575  -0.08829   0.04924   0.02348   0.02725
  95        2S         -0.10607  -0.14287   0.07970   0.03842   0.04465
  96        2PX        -0.01116  -0.01046  -0.00037  -0.00466  -0.05133
  97        2PY         0.01399   0.01633  -0.00713   0.03970   0.02937
  98        2PZ         0.02633   0.01997  -0.01429   0.02851   0.10448
  99        3S          0.30968   0.42372  -0.23679  -0.11992  -0.14058
 100        3PX        -0.01787  -0.01724   0.00021  -0.00661  -0.07408
 101        3PY         0.02256   0.02677  -0.01198   0.05680   0.04270
 102        3PZ         0.04224   0.03380  -0.02361   0.04042   0.15105
 103        4S          0.26686   0.34461  -0.18912  -0.10999  -0.13357
 104        4PX        -0.01763  -0.01429   0.00051  -0.00283  -0.05714
 105        4PY         0.02253   0.02336  -0.00983   0.04109   0.02902
 106        4PZ         0.04093   0.02854  -0.01847   0.02804   0.11363
 107        5S          0.00773  -0.02072   0.01331  -0.00748  -0.00167
 108        5PX        -0.00228   0.00179  -0.00888  -0.00229  -0.00028
 109        5PY        -0.00360  -0.00348   0.00387  -0.00898   0.00165
 110        5PZ         0.00304  -0.01451   0.00380  -0.00274   0.00270
 111        6D 0        0.00095   0.00051  -0.00081   0.00018   0.00180
 112        6D+1       -0.00084  -0.00083   0.00010  -0.00022  -0.00168
 113        6D-1        0.00113   0.00132  -0.00065   0.00113   0.00150
 114        6D+2       -0.00005  -0.00022   0.00035  -0.00057   0.00018
 115        6D-2       -0.00048  -0.00053   0.00008  -0.00033  -0.00076
 116        7D 0        0.00551   0.00464  -0.00341   0.00010   0.00726
 117        7D+1       -0.00533  -0.00510   0.00200  -0.00010  -0.00703
 118        7D-1        0.00729   0.00794  -0.00450   0.00513   0.00519
 119        7D+2       -0.00102  -0.00159   0.00101  -0.00327   0.00130
 120        7D-2       -0.00310  -0.00349   0.00103  -0.00114  -0.00281
 121 7   F  1S         -0.06575   0.08829   0.04924   0.02348   0.02725
 122        2S         -0.10607   0.14287   0.07970   0.03842   0.04465
 123        2PX        -0.01116   0.01046  -0.00037  -0.00466  -0.05133
 124        2PY         0.01399  -0.01633  -0.00713   0.03970   0.02937
 125        2PZ        -0.02633   0.01997   0.01429  -0.02851  -0.10448
 126        3S          0.30968  -0.42372  -0.23679  -0.11992  -0.14058
 127        3PX        -0.01787   0.01724   0.00021  -0.00661  -0.07408
 128        3PY         0.02256  -0.02677  -0.01198   0.05680   0.04270
 129        3PZ        -0.04224   0.03380   0.02361  -0.04042  -0.15105
 130        4S          0.26686  -0.34461  -0.18912  -0.10999  -0.13357
 131        4PX        -0.01763   0.01429   0.00051  -0.00283  -0.05714
 132        4PY         0.02253  -0.02336  -0.00983   0.04109   0.02902
 133        4PZ        -0.04093   0.02854   0.01847  -0.02804  -0.11363
 134        5S          0.00773   0.02072   0.01331  -0.00748  -0.00167
 135        5PX        -0.00228  -0.00179  -0.00888  -0.00229  -0.00028
 136        5PY        -0.00360   0.00348   0.00387  -0.00898   0.00165
 137        5PZ        -0.00304  -0.01451  -0.00380   0.00274  -0.00270
 138        6D 0        0.00095  -0.00051  -0.00081   0.00018   0.00180
 139        6D+1        0.00084  -0.00083  -0.00010   0.00022   0.00168
 140        6D-1       -0.00113   0.00132   0.00065  -0.00113  -0.00150
 141        6D+2       -0.00005   0.00022   0.00035  -0.00057   0.00018
 142        6D-2       -0.00048   0.00053   0.00008  -0.00033  -0.00076
 143        7D 0        0.00551  -0.00464  -0.00341   0.00010   0.00726
 144        7D+1        0.00533  -0.00510  -0.00200   0.00010   0.00703
 145        7D-1       -0.00729   0.00794   0.00450  -0.00513  -0.00519
 146        7D+2       -0.00102   0.00159   0.00101  -0.00327   0.00130
 147        7D-2       -0.00310   0.00349   0.00103  -0.00114  -0.00281
                          11        12        13        14        15
                           O         O         O         O         O
     Eigenvalues --    -0.60897  -0.60560  -0.56618  -0.49123  -0.48185
   1 1   C  1S          0.00000   0.00047   0.03954   0.00000  -0.00091
   2        2S          0.00000   0.00066   0.06238   0.00000  -0.00159
   3        2PX         0.00000  -0.02884  -0.03485   0.00000  -0.01909
   4        2PY         0.00000   0.01032  -0.12747   0.00000   0.00573
   5        2PZ         0.04759   0.00000   0.00000   0.13779   0.00000
   6        3S          0.00000  -0.00196  -0.16917   0.00000   0.00339
   7        3PX         0.00000  -0.04668  -0.04936   0.00000  -0.02517
   8        3PY         0.00000   0.01747  -0.17618   0.00000   0.00937
   9        3PZ         0.06864   0.00000   0.00000   0.18704   0.00000
  10        4S          0.00000   0.00828  -0.12542   0.00000   0.02427
  11        4PX         0.00000  -0.03085  -0.02827   0.00000  -0.01273
  12        4PY         0.00000   0.00739  -0.10398   0.00000   0.01538
  13        4PZ         0.05025   0.00000   0.00000   0.11356   0.00000
  14        5S          0.00000  -0.03934  -0.17499   0.00000   0.03906
  15        5PX         0.00000   0.00225   0.01125   0.00000  -0.01962
  16        5PY         0.00000   0.00825   0.03186   0.00000  -0.00356
  17        5PZ         0.01193   0.00000   0.00000   0.02108   0.00000
  18        6D 0        0.00000  -0.00011  -0.00925   0.00000  -0.00127
  19        6D+1       -0.00054   0.00000   0.00000   0.00161   0.00000
  20        6D-1       -0.00198   0.00000   0.00000   0.00553   0.00000
  21        6D+2        0.00000   0.00255  -0.00455   0.00000   0.00154
  22        6D-2        0.00000   0.00352   0.00358   0.00000   0.00134
  23        7D 0        0.00000   0.00516  -0.00005   0.00000   0.00525
  24        7D+1       -0.00592   0.00000   0.00000   0.00554   0.00000
  25        7D-1       -0.00688   0.00000   0.00000   0.01135   0.00000
  26        7D+2        0.00000   0.00390  -0.00758   0.00000  -0.00185
  27        7D-2        0.00000   0.00903   0.00482   0.00000  -0.00597
  28 2   H  1S          0.02555   0.00114  -0.08598   0.09289  -0.00003
  29        2S          0.03067  -0.00413  -0.11891   0.12583  -0.01037
  30        3S         -0.00707   0.00697  -0.01200   0.03140  -0.01088
  31        4PX         0.00012  -0.00135   0.00053  -0.00224  -0.00033
  32        4PY        -0.00275   0.00115   0.00235  -0.01028   0.00272
  33        4PZ        -0.00231   0.00020   0.01428  -0.00663   0.00032
  34 3   H  1S         -0.02555   0.00114  -0.08598  -0.09289  -0.00003
  35        2S         -0.03067  -0.00413  -0.11891  -0.12583  -0.01037
  36        3S          0.00707   0.00697  -0.01200  -0.03140  -0.01088
  37        4PX        -0.00012  -0.00135   0.00053   0.00224  -0.00033
  38        4PY         0.00275   0.00115   0.00235   0.01028   0.00272
  39        4PZ        -0.00231  -0.00020  -0.01428  -0.00663  -0.00032
  40 4   C  1S          0.00000  -0.00055  -0.02006   0.00000   0.00016
  41        2S          0.00000  -0.00097  -0.03173   0.00000   0.00014
  42        2PX         0.00000  -0.15280   0.03484   0.00000  -0.02576
  43        2PY         0.00000   0.04405   0.12097   0.00000   0.00808
  44        2PZ         0.15786   0.00000   0.00000  -0.00161   0.00000
  45        3S          0.00000   0.00378   0.09456   0.00000   0.00144
  46        3PX         0.00000  -0.22886   0.05216   0.00000  -0.02677
  47        3PY         0.00000   0.06652   0.18424   0.00000   0.01095
  48        3PZ         0.23583   0.00000   0.00000  -0.00700   0.00000
  49        4S          0.00000  -0.00120   0.06965   0.00000   0.00123
  50        4PX         0.00000  -0.07281   0.01241   0.00000  -0.01932
  51        4PY         0.00000   0.01288   0.05363   0.00000   0.00615
  52        4PZ         0.06823   0.00000   0.00000   0.00637   0.00000
  53        5S          0.00000   0.03509   0.17718   0.00000  -0.03271
  54        5PX         0.00000   0.00557   0.02047   0.00000   0.02830
  55        5PY         0.00000   0.00718   0.06832   0.00000  -0.01645
  56        5PZ        -0.01061   0.00000   0.00000  -0.01815   0.00000
  57        6D 0        0.00000  -0.00700   0.00178   0.00000  -0.01932
  58        6D+1        0.00472   0.00000   0.00000   0.01410   0.00000
  59        6D-1       -0.01305   0.00000   0.00000   0.01102   0.00000
  60        6D+2        0.00000   0.00979   0.00317   0.00000   0.00520
  61        6D-2        0.00000   0.00757  -0.00147   0.00000  -0.01105
  62        7D 0        0.00000  -0.00039   0.00577   0.00000  -0.04359
  63        7D+1       -0.00303   0.00000   0.00000   0.04139   0.00000
  64        7D-1       -0.01001   0.00000   0.00000   0.03882   0.00000
  65        7D+2        0.00000   0.00713   0.01695   0.00000   0.00224
  66        7D-2        0.00000   0.00830  -0.00974   0.00000  -0.03911
  67 5   F  1S          0.00000   0.02823  -0.00218   0.00000   0.00135
  68        2S          0.00000   0.04626  -0.00357   0.00000   0.00215
  69        2PX         0.00000   0.18636  -0.02310   0.00000   0.06624
  70        2PY         0.00000   0.03982   0.10304   0.00000   0.14931
  71        2PZ         0.08666   0.00000   0.00000  -0.12803   0.00000
  72        3S          0.00000  -0.14568   0.01107   0.00000  -0.00649
  73        3PX         0.00000   0.26987  -0.03328   0.00000   0.09732
  74        3PY         0.00000   0.05750   0.14804   0.00000   0.21508
  75        3PZ         0.12577   0.00000   0.00000  -0.18447   0.00000
  76        4S          0.00000  -0.16039   0.00836   0.00000  -0.01252
  77        4PX         0.00000   0.19531  -0.02806   0.00000   0.07875
  78        4PY         0.00000   0.04545   0.12337   0.00000   0.17616
  79        4PZ         0.09844   0.00000   0.00000  -0.14995   0.00000
  80        5S          0.00000  -0.04614  -0.01428   0.00000  -0.01756
  81        5PX         0.00000   0.00730  -0.00830   0.00000  -0.00798
  82        5PY         0.00000  -0.00001   0.00023   0.00000   0.02414
  83        5PZ         0.00737   0.00000   0.00000  -0.02219   0.00000
  84        6D 0        0.00000  -0.00206   0.00022   0.00000  -0.00082
  85        6D+1        0.00204   0.00000   0.00000  -0.00167   0.00000
  86        6D-1        0.00002   0.00000   0.00000   0.00017   0.00000
  87        6D+2        0.00000   0.00347  -0.00059   0.00000   0.00047
  88        6D-2        0.00000   0.00106   0.00172   0.00000   0.00173
  89        7D 0        0.00000  -0.00621   0.00027   0.00000  -0.00476
  90        7D+1        0.00963   0.00000   0.00000  -0.00698   0.00000
  91        7D-1        0.00186   0.00000   0.00000   0.00018   0.00000
  92        7D+2        0.00000   0.01118  -0.00190   0.00000   0.00470
  93        7D-2        0.00000   0.00520   0.01088   0.00000   0.00879
  94 6   F  1S         -0.02435  -0.01329  -0.00286  -0.00041  -0.00083
  95        2S         -0.03991  -0.02178  -0.00467  -0.00070  -0.00133
  96        2PX         0.07845  -0.04600   0.05520  -0.11498   0.12188
  97        2PY        -0.11052  -0.03563   0.07774  -0.08506  -0.12354
  98        2PZ        -0.09993  -0.10906  -0.05275   0.01127   0.07534
  99        3S          0.12574   0.06846   0.01417   0.00281   0.00400
 100        3PX         0.11378  -0.06674   0.07932  -0.16562   0.17534
 101        3PY        -0.15992  -0.05155   0.11209  -0.12215  -0.17829
 102        3PZ        -0.14462  -0.15804  -0.07553   0.01627   0.10744
 103        4S          0.13839   0.07678   0.01888  -0.00105   0.00895
 104        4PX         0.08367  -0.05584   0.06441  -0.13331   0.14706
 105        4PY        -0.12043  -0.03675   0.09508  -0.10210  -0.14641
 106        4PZ        -0.10130  -0.11764  -0.06154   0.00971   0.09146
 107        5S          0.03617   0.01828  -0.01607   0.00060   0.00876
 108        5PX         0.00656  -0.00310   0.00460  -0.01972   0.01360
 109        5PY        -0.00208   0.00032  -0.00520  -0.00975  -0.01670
 110        5PZ        -0.00355  -0.00711  -0.00809   0.00568   0.01830
 111        6D 0       -0.00078  -0.00216  -0.00107   0.00015   0.00136
 112        6D+1        0.00196  -0.00018   0.00116  -0.00110   0.00088
 113        6D-1       -0.00273  -0.00154   0.00058  -0.00048  -0.00080
 114        6D+2        0.00050   0.00077  -0.00090   0.00109   0.00030
 115        6D-2        0.00148  -0.00025   0.00005  -0.00047   0.00093
 116        7D 0       -0.00041  -0.00830  -0.00563   0.00066   0.00716
 117        7D+1        0.00595  -0.00294   0.00543  -0.00440   0.00509
 118        7D-1       -0.00929  -0.00628   0.00558  -0.00360  -0.00462
 119        7D+2        0.00288   0.00267  -0.00625   0.00570   0.00121
 120        7D-2        0.00640  -0.00310  -0.00073  -0.00194   0.00533
 121 7   F  1S          0.02435  -0.01329  -0.00286   0.00041  -0.00083
 122        2S          0.03991  -0.02178  -0.00467   0.00070  -0.00133
 123        2PX        -0.07845  -0.04600   0.05520   0.11498   0.12188
 124        2PY         0.11052  -0.03563   0.07774   0.08506  -0.12354
 125        2PZ        -0.09993   0.10906   0.05275   0.01127  -0.07534
 126        3S         -0.12574   0.06846   0.01417  -0.00281   0.00400
 127        3PX        -0.11378  -0.06674   0.07932   0.16562   0.17534
 128        3PY         0.15992  -0.05155   0.11209   0.12215  -0.17829
 129        3PZ        -0.14462   0.15804   0.07553   0.01627  -0.10744
 130        4S         -0.13839   0.07678   0.01888   0.00105   0.00895
 131        4PX        -0.08367  -0.05584   0.06441   0.13331   0.14706
 132        4PY         0.12043  -0.03675   0.09508   0.10210  -0.14641
 133        4PZ        -0.10130   0.11764   0.06154   0.00971  -0.09146
 134        5S         -0.03617   0.01828  -0.01607  -0.00060   0.00876
 135        5PX        -0.00656  -0.00310   0.00460   0.01972   0.01360
 136        5PY         0.00208   0.00032  -0.00520   0.00975  -0.01670
 137        5PZ        -0.00355   0.00711   0.00809   0.00568  -0.01830
 138        6D 0        0.00078  -0.00216  -0.00107  -0.00015   0.00136
 139        6D+1        0.00196   0.00018  -0.00116  -0.00110  -0.00088
 140        6D-1       -0.00273   0.00154  -0.00058  -0.00048   0.00080
 141        6D+2       -0.00050   0.00077  -0.00090  -0.00109   0.00030
 142        6D-2       -0.00148  -0.00025   0.00005   0.00047   0.00093
 143        7D 0        0.00041  -0.00830  -0.00563  -0.00066   0.00716
 144        7D+1        0.00595   0.00294  -0.00543  -0.00440  -0.00509
 145        7D-1       -0.00929   0.00628  -0.00558  -0.00360   0.00462
 146        7D+2       -0.00288   0.00267  -0.00625  -0.00570   0.00121
 147        7D-2       -0.00640  -0.00310  -0.00073   0.00194   0.00533
                          16        17        18        19        20
                           O         O         O         O         O
     Eigenvalues --    -0.47236  -0.44461  -0.43340  -0.42233  -0.41712
   1 1   C  1S          0.00000   0.00050   0.00000   0.00000   0.01506
   2        2S          0.00000   0.00089   0.00000   0.00000   0.02450
   3        2PX         0.00000  -0.03302   0.00000   0.00000   0.03953
   4        2PY         0.00000   0.00991   0.00000   0.00000   0.14508
   5        2PZ         0.12512   0.00000   0.10083  -0.00145   0.00000
   6        3S          0.00000  -0.00204   0.00000   0.00000  -0.07465
   7        3PX         0.00000  -0.04817   0.00000   0.00000   0.05556
   8        3PY         0.00000   0.01279   0.00000   0.00000   0.20531
   9        3PZ         0.17091   0.00000   0.14276   0.00079   0.00000
  10        4S          0.00000  -0.01688   0.00000   0.00000   0.02584
  11        4PX         0.00000  -0.03755   0.00000   0.00000   0.02370
  12        4PY         0.00000   0.01277   0.00000   0.00000   0.09647
  13        4PZ         0.10485   0.00000   0.08575   0.01350   0.00000
  14        5S          0.00000   0.00636   0.00000   0.00000  -0.13319
  15        5PX         0.00000   0.00310   0.00000   0.00000   0.01062
  16        5PY         0.00000  -0.00228   0.00000   0.00000   0.03601
  17        5PZ        -0.00253   0.00000   0.00960   0.00411   0.00000
  18        6D 0        0.00000   0.00012   0.00000   0.00000   0.00892
  19        6D+1        0.00070   0.00000   0.00154  -0.00006   0.00000
  20        6D-1        0.00820   0.00000   0.00819  -0.00007   0.00000
  21        6D+2        0.00000   0.00093   0.00000   0.00000   0.00500
  22        6D-2        0.00000   0.00148   0.00000   0.00000  -0.00375
  23        7D 0        0.00000  -0.00618   0.00000   0.00000   0.01030
  24        7D+1       -0.00311   0.00000  -0.00586   0.00084   0.00000
  25        7D-1       -0.00810   0.00000  -0.00512   0.00331   0.00000
  26        7D+2        0.00000   0.00145   0.00000   0.00000   0.00136
  27        7D-2        0.00000  -0.00190   0.00000   0.00000  -0.00224
  28 2   H  1S          0.08932   0.00026   0.07515  -0.00104   0.04906
  29        2S          0.13276   0.00612   0.11302  -0.00997   0.06326
  30        3S          0.03358  -0.00231   0.03857  -0.00790   0.03564
  31        4PX        -0.00211  -0.00234  -0.00036   0.00014   0.00166
  32        4PY        -0.00672  -0.00035  -0.00374   0.00111   0.00396
  33        4PZ        -0.00957  -0.00072  -0.00819   0.00102  -0.00607
  34 3   H  1S         -0.08932   0.00026  -0.07515   0.00104   0.04906
  35        2S         -0.13276   0.00612  -0.11302   0.00997   0.06326
  36        3S         -0.03358  -0.00231  -0.03857   0.00790   0.03564
  37        4PX         0.00211  -0.00234   0.00036  -0.00014   0.00166
  38        4PY         0.00672  -0.00035   0.00374  -0.00111   0.00396
  39        4PZ        -0.00957   0.00072  -0.00819   0.00102   0.00607
  40 4   C  1S          0.00000   0.00008   0.00000   0.00000   0.01914
  41        2S          0.00000   0.00021   0.00000   0.00000   0.03011
  42        2PX         0.00000   0.02085   0.00000   0.00000  -0.03335
  43        2PY         0.00000  -0.00585   0.00000   0.00000  -0.10889
  44        2PZ        -0.03850   0.00000   0.00716  -0.00201   0.00000
  45        3S          0.00000  -0.00178   0.00000   0.00000  -0.08331
  46        3PX         0.00000   0.01859   0.00000   0.00000  -0.04540
  47        3PY         0.00000  -0.00555   0.00000   0.00000  -0.14779
  48        3PZ        -0.04263   0.00000   0.00160  -0.00049   0.00000
  49        4S          0.00000   0.00527   0.00000   0.00000  -0.18372
  50        4PX         0.00000  -0.00972   0.00000   0.00000  -0.03106
  51        4PY         0.00000   0.01135   0.00000   0.00000  -0.09998
  52        4PZ        -0.00759   0.00000  -0.01693  -0.00331   0.00000
  53        5S          0.00000  -0.00289   0.00000   0.00000   0.12059
  54        5PX         0.00000  -0.03385   0.00000   0.00000   0.01867
  55        5PY         0.00000   0.01101   0.00000   0.00000   0.05642
  56        5PZ         0.03364   0.00000  -0.02927  -0.00048   0.00000
  57        6D 0        0.00000   0.01116   0.00000   0.00000   0.01290
  58        6D+1       -0.01879   0.00000   0.00278  -0.00057   0.00000
  59        6D-1        0.01568   0.00000  -0.00996   0.00098   0.00000
  60        6D+2        0.00000  -0.01455   0.00000   0.00000   0.01762
  61        6D-2        0.00000  -0.01024   0.00000   0.00000  -0.01214
  62        7D 0        0.00000   0.01474   0.00000   0.00000   0.02542
  63        7D+1       -0.03750   0.00000  -0.00090  -0.00198   0.00000
  64        7D-1        0.01513   0.00000  -0.02185   0.00079   0.00000
  65        7D+2        0.00000  -0.02592   0.00000   0.00000   0.03447
  66        7D-2        0.00000  -0.02353   0.00000   0.00000  -0.02498
  67 5   F  1S          0.00000   0.00162   0.00000   0.00000  -0.00221
  68        2S          0.00000   0.00275   0.00000   0.00000  -0.00370
  69        2PX         0.00000  -0.12231   0.00000   0.00000   0.05180
  70        2PY         0.00000   0.20588   0.00000   0.00000   0.13875
  71        2PZ         0.16128   0.00000  -0.08413   0.20861   0.00000
  72        3S          0.00000  -0.00879   0.00000   0.00000   0.01198
  73        3PX         0.00000  -0.17907   0.00000   0.00000   0.07661
  74        3PY         0.00000   0.29517   0.00000   0.00000   0.19829
  75        3PZ         0.23115   0.00000  -0.12032   0.29896   0.00000
  76        4S          0.00000  -0.01012   0.00000   0.00000   0.02225
  77        4PX         0.00000  -0.15036   0.00000   0.00000   0.06792
  78        4PY         0.00000   0.25789   0.00000   0.00000   0.17828
  79        4PZ         0.19838   0.00000  -0.10995   0.26855   0.00000
  80        5S          0.00000   0.01828   0.00000   0.00000   0.00209
  81        5PX         0.00000   0.00193   0.00000   0.00000   0.00735
  82        5PY         0.00000   0.02894   0.00000   0.00000   0.03224
  83        5PZ         0.01849   0.00000  -0.00283   0.03199   0.00000
  84        6D 0        0.00000   0.00068   0.00000   0.00000  -0.00022
  85        6D+1        0.00130   0.00000  -0.00029   0.00077   0.00000
  86        6D-1        0.00029   0.00000  -0.00021   0.00019   0.00000
  87        6D+2        0.00000  -0.00143   0.00000   0.00000   0.00066
  88        6D-2        0.00000   0.00101   0.00000   0.00000   0.00060
  89        7D 0        0.00000   0.00550   0.00000   0.00000  -0.00224
  90        7D+1        0.00988   0.00000  -0.00596   0.01313   0.00000
  91        7D-1        0.00080   0.00000  -0.00138   0.00309   0.00000
  92        7D+2        0.00000  -0.01115   0.00000   0.00000   0.00421
  93        7D-2        0.00000   0.01171   0.00000   0.00000   0.00532
  94 6   F  1S          0.00019  -0.00101   0.00109  -0.00019  -0.00203
  95        2S          0.00018  -0.00172   0.00181  -0.00032  -0.00340
  96        2PX         0.04910  -0.14846   0.05168  -0.16091   0.04402
  97        2PY         0.04263  -0.03398   0.15092   0.04491   0.14474
  98        2PZ         0.12777   0.02478  -0.12373  -0.08509   0.00741
  99        3S          0.00044   0.00575  -0.00531   0.00103   0.01089
 100        3PX         0.06937  -0.21322   0.07484  -0.23093   0.06203
 101        3PY         0.06366  -0.04797   0.21606   0.06463   0.20809
 102        3PZ         0.18625   0.03737  -0.17869  -0.12180   0.01277
 103        4S         -0.00573   0.00500  -0.01020   0.00049   0.02034
 104        4PX         0.06044  -0.18907   0.06364  -0.20737   0.05657
 105        4PY         0.04652  -0.04312   0.19094   0.05770   0.18717
 106        4PZ         0.15465   0.02734  -0.15770  -0.10977   0.00962
 107        5S         -0.01475  -0.00851   0.01510  -0.00062   0.00356
 108        5PX         0.01333  -0.01070   0.00681  -0.02314   0.01102
 109        5PY         0.00515  -0.01155   0.03147   0.00795   0.03241
 110        5PZ         0.00250   0.00112  -0.00427  -0.01343  -0.00120
 111        6D 0        0.00106   0.00042  -0.00082  -0.00040   0.00022
 112        6D+1       -0.00025  -0.00078   0.00059  -0.00039  -0.00003
 113        6D-1        0.00141   0.00004   0.00015  -0.00002   0.00085
 114        6D+2       -0.00058   0.00012  -0.00054   0.00005  -0.00024
 115        6D-2        0.00001  -0.00054  -0.00007  -0.00038  -0.00038
 116        7D 0        0.00895   0.00068  -0.01004  -0.00731   0.00040
 117        7D+1       -0.00184  -0.00910   0.00592  -0.00676   0.00023
 118        7D-1        0.00751  -0.00052   0.00219  -0.00113   0.00619
 119        7D+2       -0.00197   0.00345  -0.00510   0.00066  -0.00331
 120        7D-2        0.00008  -0.00528  -0.00203  -0.00732  -0.00201
 121 7   F  1S         -0.00019  -0.00101  -0.00109   0.00019  -0.00203
 122        2S         -0.00018  -0.00172  -0.00181   0.00032  -0.00340
 123        2PX        -0.04910  -0.14846  -0.05168   0.16091   0.04402
 124        2PY        -0.04263  -0.03398  -0.15092  -0.04491   0.14474
 125        2PZ         0.12777  -0.02478  -0.12373  -0.08509  -0.00741
 126        3S         -0.00044   0.00575   0.00531  -0.00103   0.01089
 127        3PX        -0.06937  -0.21322  -0.07484   0.23093   0.06203
 128        3PY        -0.06366  -0.04797  -0.21606  -0.06463   0.20809
 129        3PZ         0.18625  -0.03737  -0.17869  -0.12180  -0.01277
 130        4S          0.00573   0.00500   0.01020  -0.00049   0.02034
 131        4PX        -0.06044  -0.18907  -0.06364   0.20737   0.05657
 132        4PY        -0.04652  -0.04312  -0.19094  -0.05770   0.18717
 133        4PZ         0.15465  -0.02734  -0.15770  -0.10977  -0.00962
 134        5S          0.01475  -0.00851  -0.01510   0.00062   0.00356
 135        5PX        -0.01333  -0.01070  -0.00681   0.02314   0.01102
 136        5PY        -0.00515  -0.01155  -0.03147  -0.00795   0.03241
 137        5PZ         0.00250  -0.00112  -0.00427  -0.01343   0.00120
 138        6D 0       -0.00106   0.00042   0.00082   0.00040   0.00022
 139        6D+1       -0.00025   0.00078   0.00059  -0.00039   0.00003
 140        6D-1        0.00141  -0.00004   0.00015  -0.00002  -0.00085
 141        6D+2        0.00058   0.00012   0.00054  -0.00005  -0.00024
 142        6D-2       -0.00001  -0.00054   0.00007   0.00038  -0.00038
 143        7D 0       -0.00895   0.00068   0.01004   0.00731   0.00040
 144        7D+1       -0.00184   0.00910   0.00592  -0.00676  -0.00023
 145        7D-1        0.00751   0.00052   0.00219  -0.00113  -0.00619
 146        7D+2        0.00197   0.00345   0.00510  -0.00066  -0.00331
 147        7D-2       -0.00008  -0.00528   0.00203   0.00732  -0.00201
                          21        22        23        24        25
                           O         V         V         V         V
     Eigenvalues --    -0.28409   0.00490   0.03759   0.04023   0.05614
   1 1   C  1S         -0.00399   0.03893  -0.00736   0.00000   0.00038
   2        2S         -0.00661   0.06440  -0.01265   0.00000   0.00056
   3        2PX         0.26033  -0.00899   0.00588   0.00000  -0.08841
   4        2PY        -0.07135  -0.04257   0.02100   0.00000   0.02910
   5        2PZ         0.00000   0.00000   0.00000  -0.09908   0.00000
   6        3S          0.01960  -0.19885   0.05083   0.00000  -0.00409
   7        3PX         0.40740  -0.01474   0.01173   0.00000  -0.11797
   8        3PY        -0.11206  -0.08007   0.04013   0.00000   0.03916
   9        3PZ         0.00000   0.00000   0.00000  -0.18709   0.00000
  10        4S          0.04951  -0.49124   0.06013   0.00000   0.06685
  11        4PX         0.40124  -0.07357   0.01592   0.00000  -0.33987
  12        4PY        -0.11335  -0.27172   0.05623   0.00000   0.07010
  13        4PZ         0.00000   0.00000   0.00000  -0.26813   0.00000
  14        5S          0.03806  -2.19403   4.99649   0.00000  -0.65854
  15        5PX         0.05967   0.38434  -0.65544   0.00000   0.92088
  16        5PY        -0.02289   1.43608  -2.17070   0.00000   0.00730
  17        5PZ         0.00000   0.00000   0.00000   1.60049   0.00000
  18        6D 0       -0.00089   0.00084   0.00265   0.00000  -0.00107
  19        6D+1        0.00000   0.00000   0.00000   0.00055   0.00000
  20        6D-1        0.00000   0.00000   0.00000   0.00416   0.00000
  21        6D+2       -0.00061  -0.00105   0.00460   0.00000   0.00104
  22        6D-2       -0.00281   0.00033  -0.00303   0.00000   0.00129
  23        7D 0       -0.00079  -0.04108   0.03264   0.00000   0.00069
  24        7D+1        0.00000   0.00000   0.00000   0.00190   0.00000
  25        7D-1        0.00000   0.00000   0.00000  -0.02552   0.00000
  26        7D+2       -0.00102  -0.01121   0.02787   0.00000   0.01119
  27        7D-2       -0.00316   0.00998  -0.01969   0.00000   0.02919
  28 2   H  1S         -0.00507  -0.00630   0.00385  -0.00897  -0.00062
  29        2S         -0.01164   0.10957  -0.01770   0.12489  -0.02080
  30        3S         -0.00638  -0.05750  -0.03203  -0.25528   0.05838
  31        4PX         0.02036   0.00011  -0.00232   0.00060   0.00269
  32        4PY        -0.00446   0.00166  -0.00683   0.00894   0.00056
  33        4PZ         0.00078   0.00904   0.00000   0.00495  -0.00103
  34 3   H  1S         -0.00507  -0.00630   0.00385   0.00897  -0.00062
  35        2S         -0.01164   0.10957  -0.01770  -0.12489  -0.02080
  36        3S         -0.00638  -0.05750  -0.03203   0.25528   0.05838
  37        4PX         0.02036   0.00011  -0.00232  -0.00060   0.00269
  38        4PY        -0.00446   0.00166  -0.00683  -0.00894   0.00056
  39        4PZ        -0.00078  -0.00904  -0.00000   0.00495   0.00103
  40 4   C  1S          0.00149  -0.01274  -0.00013   0.00000  -0.00156
  41        2S          0.00238  -0.01975   0.00117   0.00000  -0.00261
  42        2PX         0.02147   0.00146  -0.02029   0.00000  -0.01753
  43        2PY        -0.01189   0.00382  -0.06335   0.00000   0.00645
  44        2PZ         0.00000   0.00000   0.00000  -0.03484   0.00000
  45        3S         -0.00659   0.02454  -0.06131   0.00000   0.01068
  46        3PX         0.03715   0.00180  -0.02550   0.00000  -0.04115
  47        3PY        -0.01823  -0.00993  -0.07675   0.00000   0.01484
  48        3PZ         0.00000   0.00000   0.00000  -0.07270   0.00000
  49        4S         -0.02170   0.46610   0.71888   0.00000  -0.00496
  50        4PX         0.01963  -0.13043  -0.13475   0.00000   0.24948
  51        4PY        -0.01798  -0.27986  -0.33499   0.00000  -0.14071
  52        4PZ         0.00000   0.00000   0.00000  -0.00077   0.00000
  53        5S         -0.04209   4.36955  -3.73531   0.00000   0.66888
  54        5PX        -0.01865   0.24200  -0.63344   0.00000   0.66911
  55        5PY        -0.00979   0.72725  -1.95100   0.00000  -0.14831
  56        5PZ         0.00000   0.00000   0.00000  -0.23096   0.00000
  57        6D 0       -0.00496  -0.00150  -0.00067   0.00000   0.00153
  58        6D+1        0.00000   0.00000   0.00000   0.00141   0.00000
  59        6D-1        0.00000   0.00000   0.00000  -0.00798   0.00000
  60        6D+2        0.01067  -0.00026  -0.00140   0.00000  -0.00461
  61        6D-2        0.00998   0.00034   0.00077   0.00000  -0.00454
  62        7D 0       -0.00941   0.02550   0.00009   0.00000   0.02913
  63        7D+1        0.00000   0.00000   0.00000  -0.00668   0.00000
  64        7D-1        0.00000   0.00000   0.00000  -0.03533   0.00000
  65        7D+2        0.03073   0.02329   0.00987   0.00000  -0.01673
  66        7D-2        0.03326  -0.01204  -0.00325   0.00000  -0.00943
  67 5   F  1S         -0.00612   0.00999   0.01416   0.00000  -0.00518
  68        2S         -0.01027   0.01683   0.02379   0.00000  -0.00895
  69        2PX         0.04194  -0.00674  -0.00013   0.00000  -0.03590
  70        2PY         0.07407  -0.00501   0.02276   0.00000   0.00588
  71        2PZ         0.00000   0.00000   0.00000  -0.00704   0.00000
  72        3S          0.03578  -0.06051  -0.08359   0.00000   0.03767
  73        3PX         0.06260  -0.00690   0.00084   0.00000  -0.05582
  74        3PY         0.10628  -0.00873   0.03469   0.00000   0.01304
  75        3PZ         0.00000   0.00000   0.00000  -0.01257   0.00000
  76        4S          0.02734  -0.07822  -0.14514   0.00000   0.01337
  77        4PX         0.04931  -0.05591  -0.05314   0.00000  -0.01977
[...]
   5. BD (   1) C   4 - F   6        / 54. RY*(   1) C   4                    0.29    2.25    0.033
   5. BD (   1) C   4 - F   6        /142. BD*(   1) C   1 - H   2            0.31    1.42    0.026
   5. BD (   1) C   4 - F   6        /145. BD*(   1) C   4 - F   5            0.35    1.23    0.027
   5. BD (   1) C   4 - F   6        /147. BD*(   1) C   4 - F   7            0.34    1.24    0.027
   6. BD (   1) C   4 - F   7        / 54. RY*(   1) C   4                    0.29    2.25    0.033
   6. BD (   1) C   4 - F   7        /143. BD*(   1) C   1 - H   3            0.31    1.42    0.026
   6. BD (   1) C   4 - F   7        /145. BD*(   1) C   4 - F   5            0.35    1.23    0.027
   6. BD (   1) C   4 - F   7        /146. BD*(   1) C   4 - F   6            0.34    1.24    0.027
   7. CR (   1) C   1                / 44. RY*(   1) H   2                    0.30   10.93    0.072
   7. CR (   1) C   1                / 49. RY*(   1) H   3                    0.30   10.93    0.072
   7. CR (   1) C   1                / 56. RY*(   3) C   4                    0.68   11.23    0.111
   7. CR (   1) C   1                / 62. RY*(   9) C   4                    0.44   12.53    0.093
   8. CR (   1) C   4                / 25. RY*(   4) C   1                    0.28   11.17    0.070
   8. CR (   1) C   4                /144. BD*(   1) C   1 - C   4            0.83   10.71    0.120
   8. CR (   1) C   4                /145. BD*(   1) C   4 - F   5            0.27   10.55    0.068
   8. CR (   1) C   4                /146. BD*(   1) C   4 - F   6            0.26   10.56    0.068
   8. CR (   1) C   4                /147. BD*(   1) C   4 - F   7            0.26   10.56    0.068
   9. CR (   1) F   5                / 55. RY*(   2) C   4                    0.98   25.67    0.201
   9. CR (   1) F   5                / 56. RY*(   3) C   4                    0.38   25.59    0.126
  10. CR (   1) F   6                / 54. RY*(   1) C   4                    0.84   25.68    0.186
  10. CR (   1) F   6                / 55. RY*(   2) C   4                    0.28   25.67    0.107
  10. CR (   1) F   6                / 56. RY*(   3) C   4                    0.34   25.59    0.118
  11. CR (   1) F   7                / 54. RY*(   1) C   4                    0.84   25.68    0.186
  11. CR (   1) F   7                / 55. RY*(   2) C   4                    0.28   25.67    0.107
  11. CR (   1) F   7                / 56. RY*(   3) C   4                    0.34   25.59    0.118
  13. LP (   1) F   5                / 55. RY*(   2) C   4                    3.17    2.31    0.108
  13. LP (   1) F   5                / 56. RY*(   3) C   4                    1.27    2.23    0.067
  13. LP (   1) F   5                / 57. RY*(   4) C   4                    0.44    2.32    0.040
  13. LP (   1) F   5                / 59. RY*(   6) C   4                    0.52    3.15    0.051
  13. LP (   1) F   5                / 66. RY*(  13) C   4                    0.39    3.06    0.044
  14. LP (   2) F   5                / 54. RY*(   1) C   4                    0.78    1.67    0.046
  14. LP (   2) F   5                /146. BD*(   1) C   4 - F   6            4.97    0.65    0.072
  14. LP (   2) F   5                /147. BD*(   1) C   4 - F   7            4.97    0.65    0.072
  15. LP (   3) F   5                / 12. LP*(   1) C   1                    1.42    0.38    0.029
  15. LP (   3) F   5                / 56. RY*(   3) C   4                    0.55    1.57    0.038
  15. LP (   3) F   5                / 61. RY*(   8) C   4                    0.32    2.66    0.037
  15. LP (   3) F   5                /144. BD*(   1) C   1 - C   4            2.80    0.80    0.060
  15. LP (   3) F   5                /146. BD*(   1) C   4 - F   6            2.36    0.65    0.050
  15. LP (   3) F   5                /147. BD*(   1) C   4 - F   7            2.36    0.65    0.050
  16. LP (   1) F   6                / 54. RY*(   1) C   4                    2.75    2.32    0.101
  16. LP (   1) F   6                / 55. RY*(   2) C   4                    0.91    2.31    0.058
  16. LP (   1) F   6                / 56. RY*(   3) C   4                    1.13    2.23    0.063
  16. LP (   1) F   6                / 57. RY*(   4) C   4                    0.28    2.32    0.032
  16. LP (   1) F   6                / 58. RY*(   5) C   4                    0.45    3.18    0.048
  16. LP (   1) F   6                / 64. RY*(  11) C   4                    0.27    3.30    0.037
  17. LP (   2) F   6                / 12. LP*(   1) C   1                    0.34    0.38    0.014
  17. LP (   2) F   6                / 56. RY*(   3) C   4                    0.40    1.58    0.032
  17. LP (   2) F   6                /144. BD*(   1) C   1 - C   4            2.56    0.81    0.057
  17. LP (   2) F   6                /145. BD*(   1) C   4 - F   5            0.73    0.64    0.028
  17. LP (   2) F   6                /147. BD*(   1) C   4 - F   7            4.25    0.65    0.067
  18. LP (   3) F   6                / 55. RY*(   2) C   4                    0.54    1.66    0.038
  18. LP (   3) F   6                /145. BD*(   1) C   4 - F   5            6.95    0.64    0.085
  18. LP (   3) F   6                /147. BD*(   1) C   4 - F   7            3.22    0.65    0.058
  19. LP (   1) F   7                / 54. RY*(   1) C   4                    2.75    2.32    0.101
  19. LP (   1) F   7                / 55. RY*(   2) C   4                    0.91    2.31    0.058
  19. LP (   1) F   7                / 56. RY*(   3) C   4                    1.13    2.23    0.063
  19. LP (   1) F   7                / 57. RY*(   4) C   4                    0.28    2.32    0.032
  19. LP (   1) F   7                / 58. RY*(   5) C   4                    0.45    3.18    0.048
  19. LP (   1) F   7                / 64. RY*(  11) C   4                    0.27    3.30    0.037
  20. LP (   2) F   7                / 12. LP*(   1) C   1                    0.34    0.38    0.014
  20. LP (   2) F   7                / 56. RY*(   3) C   4                    0.40    1.58    0.032
  20. LP (   2) F   7                /144. BD*(   1) C   1 - C   4            2.56    0.81    0.057
  20. LP (   2) F   7                /145. BD*(   1) C   4 - F   5            0.73    0.64    0.028
  20. LP (   2) F   7                /146. BD*(   1) C   4 - F   6            4.25    0.65    0.067
  21. LP (   3) F   7                / 55. RY*(   2) C   4                    0.54    1.66    0.038
  21. LP (   3) F   7                /145. BD*(   1) C   4 - F   5            6.95    0.64    0.085
  21. LP (   3) F   7                /146. BD*(   1) C   4 - F   6            3.22    0.65    0.058
 145. BD*(   1) C   4 - F   5        / 59. RY*(   6) C   4                    0.27    1.85    0.131
 145. BD*(   1) C   4 - F   5        / 61. RY*(   8) C   4                    0.31    2.01    0.148
 145. BD*(   1) C   4 - F   5        / 65. RY*(  12) C   4                    0.59    0.78    0.128
 145. BD*(   1) C   4 - F   5        /146. BD*(   1) C   4 - F   6            0.62    0.01    0.011
 145. BD*(   1) C   4 - F   5        /147. BD*(   1) C   4 - F   7            0.62    0.01    0.011
 146. BD*(   1) C   4 - F   6        / 58. RY*(   5) C   4                    0.37    1.87    0.151
 146. BD*(   1) C   4 - F   6        / 70. RY*(  17) C   4                    0.45    0.76    0.109
 146. BD*(   1) C   4 - F   6        /142. BD*(   1) C   1 - H   2            0.40    0.19    0.050
 146. BD*(   1) C   4 - F   6        /143. BD*(   1) C   1 - H   3            0.36    0.19    0.047
 147. BD*(   1) C   4 - F   7        / 58. RY*(   5) C   4                    0.37    1.87    0.151
 147. BD*(   1) C   4 - F   7        / 70. RY*(  17) C   4                    0.45    0.76    0.109
 147. BD*(   1) C   4 - F   7        /142. BD*(   1) C   1 - H   2            0.36    0.19    0.047
 147. BD*(   1) C   4 - F   7        /143. BD*(   1) C   1 - H   3            0.40    0.19    0.050


 Natural Bond Orbitals (Summary):

                                                            Principal Delocalizations
           NBO                        Occupancy    Energy   (geminal,vicinal,remote)
 ====================================================================================
 Molecular unit  1  (C2H2F3)
     1. BD (   1) C   1 - H   2          0.99353    -0.57334  146(v),62(v),147(v),56(v)
     2. BD (   1) C   1 - H   3          0.99353    -0.57334  147(v),62(v),146(v),56(v)
     3. BD (   1) C   1 - C   4          0.99820    -0.72551  98(v),120(v)
     4. BD (   1) C   4 - F   5          0.99624    -1.00587  12(v),146(g),147(g),55(g)
     5. BD (   1) C   4 - F   6          0.99790    -1.03096  145(g),147(g),142(v),54(g)
     6. BD (   1) C   4 - F   7          0.99790    -1.03096  145(g),146(g),143(v),54(g)
     7. CR (   1) C   1                  0.99966   -10.10267  56(v),62(v),44(v),49(v)
     8. CR (   1) C   4                  0.99968   -10.35353  144(g),25(v),145(g),146(g)
                                                    147(g)
     9. CR (   1) F   5                  0.99996   -24.46046  55(v),56(v)
    10. CR (   1) F   6                  0.99996   -24.46122  54(v),56(v),55(v)
    11. CR (   1) F   7                  0.99996   -24.46122  54(v),56(v),55(v)
    12. LP*(   1) C   1                  0.02089    -0.07344   
    13. LP (   1) F   5                  0.99547    -1.10346  55(v),56(v),59(v),57(v)
                                                    66(v)
    14. LP (   2) F   5                  0.97112    -0.44495  146(v),147(v),54(v)
    15. LP (   3) F   5                  0.96747    -0.44910  144(v),146(v),147(v),12(r)
                                                    56(v),61(v)
    16. LP (   1) F   6                  0.99536    -1.10240  54(v),56(v),55(v),58(v)
                                                    57(v),64(v)
    17. LP (   2) F   6                  0.97666    -0.45028  147(v),144(v),145(v),56(v)
                                                    12(r)
    18. LP (   3) F   6                  0.96671    -0.44835  145(v),147(v),55(v)
    19. LP (   1) F   7                  0.99536    -1.10240  54(v),56(v),55(v),58(v)
                                                    57(v),64(v)
    20. LP (   2) F   7                  0.97666    -0.45028  146(v),144(v),145(v),56(v)
                                                    12(r)
    21. LP (   3) F   7                  0.96671    -0.44835  145(v),146(v),55(v)
    22. RY*(   1) C   1                  0.00087     0.85490   
    23. RY*(   2) C   1                  0.00056     0.68923   
    24. RY*(   3) C   1                  0.00041     1.22067   
    25. RY*(   4) C   1                  0.00036     0.81753   
    26. RY*(   5) C   1                  0.00024     0.64315   
    27. RY*(   6) C   1                  0.00021     0.84635   
    28. RY*(   7) C   1                  0.00007     1.90951   
    29. RY*(   8) C   1                  0.00006     1.89467   
    30. RY*(   9) C   1                  0.00000     1.24072   
    31. RY*(  10) C   1                  0.00000     0.72606   
    32. RY*(  11) C   1                  0.00000     0.51741   
    33. RY*(  12) C   1                  0.00000     2.84032   
    34. RY*(  13) C   1                  0.00001     0.98263   
    35. RY*(  14) C   1                  0.00000     3.25602   
    36. RY*(  15) C   1                  0.00000     0.52385   
    37. RY*(  16) C   1                  0.00000     3.24658   
    38. RY*(  17) C   1                  0.00000     2.47518   
    39. RY*(  18) C   1                  0.00001     2.72135   
    40. RY*(  19) C   1                  0.00000    23.17248   
    41. RY*(  20) C   1                  0.00000     3.35193   
    42. RY*(  21) C   1                  0.00000     0.81517   
    43. RY*(  22) C   1                  0.00000     3.53483   
    44. RY*(   1) H   2                  0.00020     0.82316   
    45. RY*(   2) H   2                  0.00005     2.11863   
    46. RY*(   3) H   2                  0.00004     2.15939   
    47. RY*(   4) H   2                  0.00001     2.35430   
    48. RY*(   5) H   2                  0.00001     1.76321   
    49. RY*(   1) H   3                  0.00020     0.82316   
    50. RY*(   2) H   3                  0.00005     2.11863   
    51. RY*(   3) H   3                  0.00004     2.15939   
    52. RY*(   4) H   3                  0.00001     2.35430   
    53. RY*(   5) H   3                  0.00001     1.76321   
    54. RY*(   1) C   4                  0.00606     1.22118   
    55. RY*(   2) C   4                  0.00593     1.20722   
    56. RY*(   3) C   4                  0.00499     1.12585   
    57. RY*(   4) C   4                  0.00198     1.21354   
    58. RY*(   5) C   4                  0.00176     2.07345   
    59. RY*(   6) C   4                  0.00163     2.04398   
    60. RY*(   7) C   4                  0.00103     2.35045   
    61. RY*(   8) C   4                  0.00085     2.20730   
    62. RY*(   9) C   4                  0.00056     2.42779   
    63. RY*(  10) C   4                  0.00001     0.85592   
    64. RY*(  11) C   4                  0.00002     2.19784   
    65. RY*(  12) C   4                  0.00000     0.97204   
    66. RY*(  13) C   4                  0.00000     1.95836   
    67. RY*(  14) C   4                  0.00000     3.01070   
    68. RY*(  15) C   4                  0.00000    22.14579   
    69. RY*(  16) C   4                  0.00000     2.96964   
    70. RY*(  17) C   4                  0.00000     0.96632   
    71. RY*(  18) C   4                  0.00000     2.59293   
    72. RY*(  19) C   4                  0.00001     0.91015   
    73. RY*(  20) C   4                  0.00000     2.78892   
    74. RY*(  21) C   4                  0.00001     1.59854   
    75. RY*(  22) C   4                  0.00000     2.78092   
    76. RY*(   1) F   5                  0.00067     0.58391   
    77. RY*(   2) F   5                  0.00035     1.85527   
    78. RY*(   3) F   5                  0.00031     0.56287   
    79. RY*(   4) F   5                  0.00006     1.00598   
    80. RY*(   5) F   5                  0.00005     2.18801   
    81. RY*(   6) F   5                  0.00003     2.44281   
    82. RY*(   7) F   5                  0.00002     2.44759   
    83. RY*(   8) F   5                  0.00001     1.82381   
    84. RY*(   9) F   5                  0.00000     5.78071   
    85. RY*(  10) F   5                  0.00000     2.42093   
    86. RY*(  11) F   5                  0.00000     2.36797   
    87. RY*(  12) F   5                  0.00000     5.62035   
    88. RY*(  13) F   5                  0.00000     2.25260   
    89. RY*(  14) F   5                  0.00000     8.63731   
    90. RY*(  15) F   5                  0.00000     5.62685   
    91. RY*(  16) F   5                  0.00000     8.71149   
    92. RY*(  17) F   5                  0.00000    66.52495   
    93. RY*(  18) F   5                  0.00000     8.86133   
    94. RY*(  19) F   5                  0.00000     2.06972   
    95. RY*(  20) F   5                  0.00000     9.03855   
    96. RY*(  21) F   5                  0.00000     2.12316   
    97. RY*(  22) F   5                  0.00000     8.96054   
    98. RY*(   1) F   6                  0.00070     0.62802   
    99. RY*(   2) F   6                  0.00035     1.81719   
   100. RY*(   3) F   6                  0.00030     0.58085   
   101. RY*(   4) F   6                  0.00006     1.21638   
   102. RY*(   5) F   6                  0.00005     2.05317   
   103. RY*(   6) F   6                  0.00003     3.20716   
   104. RY*(   7) F   6                  0.00003     2.14082   
   105. RY*(   8) F   6                  0.00001     2.63284   
   106. RY*(   9) F   6                  0.00000     5.07491   
   107. RY*(  10) F   6                  0.00000    66.44067   
   108. RY*(  11) F   6                  0.00000     2.90706   
   109. RY*(  12) F   6                  0.00000     5.08717   
   110. RY*(  13) F   6                  0.00001     2.39298   
   111. RY*(  14) F   6                  0.00000     9.03089   
   112. RY*(  15) F   6                  0.00001     2.33023   
   113. RY*(  16) F   6                  0.00000     8.70984   
   114. RY*(  17) F   6                  0.00000     5.08928   
   115. RY*(  18) F   6                  0.00000     9.05132   
   116. RY*(  19) F   6                  0.00000     2.72853   
   117. RY*(  20) F   6                  0.00000     8.38411   
   118. RY*(  21) F   6                  0.00001     2.06037   
   119. RY*(  22) F   6                  0.00000     8.35575   
   120. RY*(   1) F   7                  0.00070     0.62802   
   121. RY*(   2) F   7                  0.00035     1.81719   
   122. RY*(   3) F   7                  0.00030     0.58085   
   123. RY*(   4) F   7                  0.00006     1.21638   
   124. RY*(   5) F   7                  0.00005     2.05317   
   125. RY*(   6) F   7                  0.00003     3.20716   
   126. RY*(   7) F   7                  0.00003     2.14082   
   127. RY*(   8) F   7                  0.00001     2.63284   
   128. RY*(   9) F   7                  0.00000     5.07491   
   129. RY*(  10) F   7                  0.00000    66.44067   
   130. RY*(  11) F   7                  0.00000     2.90706   
   131. RY*(  12) F   7                  0.00000     5.08717   
   132. RY*(  13) F   7                  0.00001     2.39298   
   133. RY*(  14) F   7                  0.00000     9.03089   
   134. RY*(  15) F   7                  0.00001     2.33023   
   135. RY*(  16) F   7                  0.00000     8.70984   
   136. RY*(  17) F   7                  0.00000     5.08928   
   137. RY*(  18) F   7                  0.00000     9.05132   
   138. RY*(  19) F   7                  0.00000     2.72853   
   139. RY*(  20) F   7                  0.00000     8.38411   
   140. RY*(  21) F   7                  0.00001     2.06037   
   141. RY*(  22) F   7                  0.00000     8.35575   
   142. BD*(   1) C   1 - H   2          0.00171     0.39257   
   143. BD*(   1) C   1 - H   3          0.00171     0.39257   
   144. BD*(   1) C   1 - C   4          0.01801     0.35474   
   145. BD*(   1) C   4 - F   5          0.04450     0.19414   
   146. BD*(   1) C   4 - F   6          0.04610     0.20428   
   147. BD*(   1) C   4 - F   7          0.04610     0.20428   
       -------------------------------
              Total Lewis   19.78804  ( 98.9402%)
        Valence non-Lewis    0.17902  (  0.8951%)
        Rydberg non-Lewis    0.03295  (  0.1647%)
       -------------------------------
            Total unit  1   20.00000  (100.0000%)
           Charge unit  1    0.50000
 Leave Link  607 at Wed Sep  5 16:49:08 2018, MaxMem=   805306368 cpu:               9.7 elap:               1.4
 (Enter /home/g16/l9999.exe)
 1\1\GINC-PC13\Stability\UB3LYP\6-311+G(2d,p)\C2H2F3(2)\MASKER\05-Sep-2
 018\0\\#p b3lyp/6-311+g(2d,p) pop=(full,nboread) stable=opt g09def\\MF
 3-c1-1sp 1\\0,2\C,0,-1.495598,0.,-0.016094\H,0,-2.01812,0.942402,0.037
 527\H,0,-2.01812,-0.942402,0.037527\C,0,-0.020764,0.,-0.008773\F,0,0.4
 84678,0.,1.255172\F,0,0.48735,-1.090052,-0.623467\F,0,0.48735,1.090052
 ,-0.623467\\Version=ES64L-G16RevA.03\State=2-A'\HF=-377.0161981\S2=0.7
 5355\S2-1=0.\S2A=0.750007\RMSD=4.584e-09\Dipole=-0.937784,0.,0.0113414
 \Quadrupole=1.9616207,-0.2722109,-1.6894098,0.,-0.1630892,0.\PG=CS [SG
 (C2F1),X(H2F2)]\\@


  THE LARGE PRINT GIVETH,
  AND THE SMALL PRINT TAKETH AWAY.

                     -- TOM WAITS
 Job cpu time:       0 days  0 hours  2 minutes 14.5 seconds.
 Elapsed time:       0 days  0 hours  0 minutes 17.4 seconds.
 File lengths (MBytes):  RWF=    135 Int=      0 D2E=      0 Chk=      4 Scr=      1
 Normal termination of Gaussian 16 at Wed Sep  5 16:49:08 2018.
