 Entering Gaussian System, Link 0=g16
 Input=tBu-c1-1sp.gjf
 Output=tBu-c1-1sp.log
 Initial command:
 /home/g16/l1.exe "/home/masker/scratch/Gau-22301.inp" -scrdir="/home/masker/scratch/"
 Entering Link 1 = /home/g16/l1.exe PID=     22302.
  
 Copyright (c) 1988,1990,1992,1993,1995,1998,2003,2009,2016,
            Gaussian, Inc.  All Rights Reserved.
  
 This is part of the Gaussian(R) 16 program.  It is based on
 the Gaussian(R) 09 system (copyright 2009, Gaussian, Inc.),
 the Gaussian(R) 03 system (copyright 2003, Gaussian, Inc.),
 the Gaussian(R) 98 system (copyright 1998, Gaussian, Inc.),
 the Gaussian(R) 94 system (copyright 1995, Gaussian, Inc.),
 the Gaussian 92(TM) system (copyright 1992, Gaussian, Inc.),
 the Gaussian 90(TM) system (copyright 1990, Gaussian, Inc.),
 the Gaussian 88(TM) system (copyright 1988, Gaussian, Inc.),
 the Gaussian 86(TM) system (copyright 1986, Carnegie Mellon
 University), and the Gaussian 82(TM) system (copyright 1983,
 Carnegie Mellon University). Gaussian is a federally registered
 trademark of Gaussian, Inc.
  
 This software contains proprietary and confidential information,
 including trade secrets, belonging to Gaussian, Inc.
  
 This software is provided under written license and may be
 used, copied, transmitted, or stored only in accord with that
 written license.
  
 The following legend is applicable only to US Government
 contracts under FAR:
  
                    RESTRICTED RIGHTS LEGEND
  
 Use, reproduction and disclosure by the US Government is
 subject to restrictions as set forth in subparagraphs (a)
 and (c) of the Commercial Computer Software - Restricted
 Rights clause in FAR 52.227-19.
  
 Gaussian, Inc.
 340 Quinnipiac St., Bldg. 40, Wallingford CT 06492
  
  
 ---------------------------------------------------------------
 Warning -- This program may not be used in any manner that
 competes with the business of Gaussian, Inc. or will provide
 assistance to any competitor of Gaussian, Inc.  The licensee
 of this program is prohibited from giving any competitor of
 Gaussian, Inc. access to this program.  By using this program,
 the user acknowledges that Gaussian, Inc. is engaged in the
 business of creating and licensing software in the field of
 computational chemistry and represents and warrants to the
 licensee that it is not a competitor of Gaussian, Inc. and that
 it will not use this program in any manner prohibited above.
 ---------------------------------------------------------------
  

 Cite this work as:
 Gaussian 16, Revision A.03,
 M. J. Frisch, G. W. Trucks, H. B. Schlegel, G. E. Scuseria, 
 M. A. Robb, J. R. Cheeseman, G. Scalmani, V. Barone, 
 G. A. Petersson, H. Nakatsuji, X. Li, M. Caricato, A. V. Marenich, 
 J. Bloino, B. G. Janesko, R. Gomperts, B. Mennucci, H. P. Hratchian, 
 J. V. Ortiz, A. F. Izmaylov, J. L. Sonnenberg, D. Williams-Young, 
 F. Ding, F. Lipparini, F. Egidi, J. Goings, B. Peng, A. Petrone, 
 T. Henderson, D. Ranasinghe, V. G. Zakrzewski, J. Gao, N. Rega, 
 G. Zheng, W. Liang, M. Hada, M. Ehara, K. Toyota, R. Fukuda, 
 J. Hasegawa, M. Ishida, T. Nakajima, Y. Honda, O. Kitao, H. Nakai, 
 T. Vreven, K. Throssell, J. A. Montgomery, Jr., J. E. Peralta, 
 F. Ogliaro, M. J. Bearpark, J. J. Heyd, E. N. Brothers, K. N. Kudin, 
 V. N. Staroverov, T. A. Keith, R. Kobayashi, J. Normand, 
 K. Raghavachari, A. P. Rendell, J. C. Burant, S. S. Iyengar, 
 J. Tomasi, M. Cossi, J. M. Millam, M. Klene, C. Adamo, R. Cammi, 
 J. W. Ochterski, R. L. Martin, K. Morokuma, O. Farkas, 
 J. B. Foresman, and D. J. Fox, Gaussian, Inc., Wallingford CT, 2016.
 
 ******************************************
 Gaussian 16:  ES64L-G16RevA.03 25-Dec-2016
                 5-Sep-2018 
 ******************************************
 %nprocshared=8
 Will use up to    8 processors via shared memory.
 %mem=6GB
 %chk=tBu-c1-1sp.chk
 -----------------------------------------------------------
 #p b3lyp/6-311+g(2d,p) pop=(full,nboread) stable=opt g09def
 -----------------------------------------------------------
 1/38=1,158=3,167=1,172=1/1;
 2/12=2,17=6,18=5,40=1/2;
 3/5=4,6=6,7=112,11=2,25=1,27=10,30=1,74=-5,75=-4,158=3/1,2,3;
 4/60=-1/1;
 5/5=2,38=5,87=10/2;
 6/7=3,28=1,40=2,87=10/1,7;
 8/6=1,10=90,11=11,87=10/1;
 9/8=-3,42=1,46=1,87=10/14;
 5/5=2,8=3,17=40,38=5,87=10/8(-2);
 6/7=3,28=1,40=2,87=10/1,7;
 99/5=1,9=1/99;
 Using 2006 physical constants.
 Leave Link    1 at Wed Sep  5 16:56:05 2018, MaxMem=   805306368 cpu:               0.3 elap:               0.0
 (Enter /home/g16/l101.exe)
 ------------
 tBu-c1-1sp 1
 ------------
 Symbolic Z-matrix:
 Charge =  0 Multiplicity = 2
 C                    -0.00002  -0.00008  -0.15439 
 C                     0.24226   1.46308   0.01522 
 H                     1.19115   1.77261  -0.43223 
 H                    -0.55747   2.06159  -0.43033 
 H                     0.2909    1.74994   1.08058 
 C                     1.14619  -0.94132   0.01516 
 H                     0.93821  -1.91916  -0.42847 
 H                     2.0633   -0.54982  -0.43426 
 H                     1.37335  -1.12326   1.08051 
 C                    -1.38845  -0.52178   0.01514 
 H                    -2.13054   0.14466  -0.43376 
 H                    -1.50657  -1.51416  -0.42926 
 H                    -1.66218  -0.62183   1.08041 
 
 ITRead=  0  0  0  0  0  0  0  0  0  0  0  0  0
 MicOpt= -1 -1 -1 -1 -1 -1 -1 -1 -1 -1 -1 -1 -1
 NAtoms=     13 NQM=       13 NQMF=       0 NMMI=      0 NMMIF=      0
                NMic=       0 NMicF=      0.
                    Isotopes and Nuclear Properties:
 (Nuclear quadrupole moments (NQMom) in fm**2, nuclear magnetic moments (NMagM)
  in nuclear magnetons)

  Atom         1           2           3           4           5           6           7           8           9          10
 IAtWgt=          12          12           1           1           1          12           1           1           1          12
 AtmWgt=  12.0000000  12.0000000   1.0078250   1.0078250   1.0078250  12.0000000   1.0078250   1.0078250   1.0078250  12.0000000
 NucSpn=           0           0           1           1           1           0           1           1           1           0
 AtZEff=  -0.0000000  -0.0000000  -0.0000000  -0.0000000  -0.0000000  -0.0000000  -0.0000000  -0.0000000  -0.0000000  -0.0000000
 NQMom=    0.0000000   0.0000000   0.0000000   0.0000000   0.0000000   0.0000000   0.0000000   0.0000000   0.0000000   0.0000000
 NMagM=    0.0000000   0.0000000   2.7928460   2.7928460   2.7928460   0.0000000   2.7928460   2.7928460   2.7928460   0.0000000
 AtZNuc=   6.0000000   6.0000000   1.0000000   1.0000000   1.0000000   6.0000000   1.0000000   1.0000000   1.0000000   6.0000000

  Atom        11          12          13
 IAtWgt=           1           1           1
 AtmWgt=   1.0078250   1.0078250   1.0078250
 NucSpn=           1           1           1
 AtZEff=  -0.0000000  -0.0000000  -0.0000000
 NQMom=    0.0000000   0.0000000   0.0000000
 NMagM=    2.7928460   2.7928460   2.7928460
 AtZNuc=   1.0000000   1.0000000   1.0000000
 Leave Link  101 at Wed Sep  5 16:56:05 2018, MaxMem=   805306368 cpu:               0.3 elap:               0.0
 (Enter /home/g16/l202.exe)
                          Input orientation:                          
 ---------------------------------------------------------------------
 Center     Atomic      Atomic             Coordinates (Angstroms)
 Number     Number       Type             X           Y           Z
 ---------------------------------------------------------------------
      1          6           0       -0.000024   -0.000082   -0.154388
      2          6           0        0.242257    1.463080    0.015217
      3          1           0        1.191145    1.772606   -0.432226
      4          1           0       -0.557470    2.061588   -0.430326
      5          1           0        0.290896    1.749943    1.080584
      6          6           0        1.146189   -0.941315    0.015159
      7          1           0        0.938205   -1.919161   -0.428467
      8          1           0        2.063304   -0.549819   -0.434259
      9          1           0        1.373347   -1.123265    1.080505
     10          6           0       -1.388445   -0.521778    0.015144
     11          1           0       -2.130536    0.144657   -0.433756
     12          1           0       -1.506571   -1.514156   -0.429260
     13          1           0       -1.662180   -0.621825    1.080408
 ---------------------------------------------------------------------
                    Distance matrix (angstroms):
                    1          2          3          4          5
     1  C    0.000000
     2  C    1.492752   0.000000
     3  H    2.153718   1.093801   0.000000
     4  H    2.153456   1.093748   1.772334   0.000000
     5  H    2.161568   1.104384   1.760556   1.760595   0.000000
     6  C    1.492806   2.568698   2.750916   3.481140   3.018199
     7  H    2.153661   3.481487   3.700424   4.252459   4.019772
     8  H    2.153569   2.751364   2.480791   3.699719   3.274918
     9  H    2.161631   3.017181   3.272250   4.019198   3.070346
    10  C    1.492857   2.568823   3.481181   2.750044   3.019282
    11  H    2.153620   2.751356   3.699160   2.479753   3.276202
    12  H    2.153522   3.481364   4.252115   3.699559   4.020555
    13  H    2.161955   3.018003   4.020302   3.271606   3.072424
                    6          7          8          9         10
     6  C    0.000000
     7  H    1.093729   0.000000
     8  H    1.093776   1.772281   0.000000
     9  H    1.104386   1.760624   1.760509   0.000000
    10  C    2.569121   2.750049   3.480994   3.020642   0.000000
    11  H    3.481061   3.698181   4.250952   4.022165   1.093776
    12  H    2.750053   2.478096   3.697834   3.275075   1.093738
    13  H    3.020557   3.274414   4.022267   3.076665   1.104413
                   11         12         13
    11  H    0.000000
    12  H    1.772290   0.000000
    13  H    1.760552   1.760559   0.000000
 Stoichiometry    C4H9(2)
 Framework group  C1[X(C4H9)]
 Deg. of freedom    33
 Full point group                 C1      NOp   1
 Largest Abelian subgroup         C1      NOp   1
 Largest concise Abelian subgroup C1      NOp   1
                         Standard orientation:                         
 ---------------------------------------------------------------------
 Center     Atomic      Atomic             Coordinates (Angstroms)
 Number     Number       Type             X           Y           Z
 ---------------------------------------------------------------------
      1          6           0       -0.000024   -0.000082   -0.154388
      2          6           0        0.241947    1.463131    0.015217
      3          1           0        1.190769    1.772858   -0.432226
      4          1           0       -0.557907    2.061470   -0.430326
      5          1           0        0.290525    1.750005    1.080584
      6          6           0        1.146388   -0.941072    0.015159
      7          1           0        0.938612   -1.918962   -0.428467
      8          1           0        2.063420   -0.549382   -0.434259
      9          1           0        1.373585   -1.122974    1.080505
     10          6           0       -1.388334   -0.522072    0.015144
     11          1           0       -2.130567    0.144205   -0.433756
     12          1           0       -1.506250   -1.514475   -0.429260
     13          1           0       -1.662048   -0.622177    1.080408
 ---------------------------------------------------------------------
 Rotational constants (GHZ):           8.0123127           8.0093910           4.3458738
 Leave Link  202 at Wed Sep  5 16:56:06 2018, MaxMem=   805306368 cpu:               0.0 elap:               0.0
 (Enter /home/g16/l301.exe)
 Standard basis: 6-311+G(2d,p) (5D, 7F)
 Ernie: Thresh=  0.10000D-02 Tol=  0.10000D-05 Strict=F.
 There are   170 symmetry adapted cartesian basis functions of A   symmetry.
 There are   162 symmetry adapted basis functions of A   symmetry.
   162 basis functions,   240 primitive gaussians,   170 cartesian basis functions
    17 alpha electrons       16 beta electrons
       nuclear repulsion energy       125.3817139258 Hartrees.
 IExCor=  402 DFT=T Ex+Corr=B3LYP ExCW=0 ScaHFX=  0.200000
 ScaDFX=  0.800000  0.720000  1.000000  0.810000 ScalE2=  1.000000  1.000000
 IRadAn=      4 IRanWt=     -1 IRanGd=            0 ICorTp=0 IEmpDi=  4
 NAtoms=   13 NActive=   13 NUniq=   13 SFac= 1.00D+00 NAtFMM=   60 NAOKFM=F Big=F
 Integral buffers will be    131072 words long.
 Raffenetti 2 integral format.
 Two-electron integral symmetry is turned on.
 Leave Link  301 at Wed Sep  5 16:56:06 2018, MaxMem=   805306368 cpu:               0.1 elap:               0.0
 (Enter /home/g16/l302.exe)
 NPDir=0 NMtPBC=     1 NCelOv=     1 NCel=       1 NClECP=     1 NCelD=      1
         NCelK=      1 NCelE2=     1 NClLst=     1 CellRange=     0.0.
 One-electron integrals computed using PRISM.
 One-electron integral symmetry used in STVInt
 NBasis=   162 RedAO= T EigKep=  6.50D-05  NBF=   162
 NBsUse=   162 1.00D-06 EigRej= -1.00D+00 NBFU=   162
 Precomputing XC quadrature grid using
 IXCGrd= 4 IRadAn=           4 IRanWt=          -1 IRanGd=           0 AccXCQ= 1.00D-10.
 Generated NRdTot=       0 NPtTot=           0 NUsed=           0 NTot=          32
 NSgBfM=   170   170   170   170   170 MxSgAt=    13 MxSgA2=    13.
 Leave Link  302 at Wed Sep  5 16:56:06 2018, MaxMem=   805306368 cpu:               0.7 elap:               0.1
 (Enter /home/g16/l303.exe)
 DipDrv:  MaxL=1.
 Leave Link  303 at Wed Sep  5 16:56:06 2018, MaxMem=   805306368 cpu:               0.1 elap:               0.0
 (Enter /home/g16/l401.exe)
 ExpMin= 4.38D-02 ExpMax= 4.56D+03 ExpMxC= 6.82D+02 IAcc=2 IRadAn=         4 AccDes= 0.00D+00
 Harris functional with IExCor=  402 and IRadAn=      -1 diagonalized for initial guess.
 HarFok:  IExCor=  402 AccDes= 0.00D+00 IRadAn=        -1 IDoV= 1 UseB2=F ITyADJ=14
 ICtDFT=  3500011 ScaDFX=  1.000000  1.000000  1.000000  1.000000
 FoFCou: FMM=F IPFlag=           0 FMFlag=      100000 FMFlg1=           0
         NFxFlg=           0 DoJE=T BraDBF=F KetDBF=T FulRan=T
         wScrn=  0.000000 ICntrl=       500 IOpCl=  0 I1Cent=   200000004 NGrid=           0
         NMat0=    1 NMatS0=      1 NMatT0=    0 NMatD0=    1 NMtDS0=    0 NMtDT0=    0
 Petite list used in FoFCou.
 Harris En= -157.902878457197    
 JPrj=0 DoOrth=F DoCkMO=F.
 Initial guess <Sx>= 0.0000 <Sy>= 0.0000 <Sz>= 0.5000 <S**2>= 0.7500 S= 0.5000
 Leave Link  401 at Wed Sep  5 16:56:06 2018, MaxMem=   805306368 cpu:               1.3 elap:               0.2
 (Enter /home/g16/l502.exe)
 Integral symmetry usage will be decided dynamically.
 UHF open shell SCF:
 Using DIIS extrapolation, IDIIS=  1040.
 NGot=   805306368 LenX=   805245387 LenY=   805216046
 Requested convergence on RMS density matrix=1.00D-08 within 128 cycles.
 Requested convergence on MAX density matrix=1.00D-06.
 Requested convergence on             energy=1.00D-06.
 No special actions if energy rises.
 Fock matrices will be formed incrementally for  20 cycles.

 Cycle   1  Pass 1  IDiag  1:
 FoFJK:  IHMeth= 1 ICntrl=       0 DoSepK=F KAlg= 0 I1Cent=           0 FoldK=F
 IRaf= 990000000 NMat=       1 IRICut=       1 DoRegI=T DoRafI=F ISym2E= 0 IDoP0=0 IntGTp=1.
 FoFCou: FMM=F IPFlag=           0 FMFlag=      100000 FMFlg1=           0
         NFxFlg=           0 DoJE=F BraDBF=F KetDBF=F FulRan=T
         wScrn=  0.000000 ICntrl=         0 IOpCl=  1 I1Cent=           0 NGrid=           0
         NMat0=    1 NMatS0=      1 NMatT0=    0 NMatD0=    1 NMtDS0=    0 NMtDT0=    0
 Symmetry not used in FoFCou.
 E= -157.637100391827    
 DIIS: error= 5.25D-02 at cycle   1 NSaved=   1.
 NSaved= 1 IEnMin= 1 EnMin= -157.637100391827     IErMin= 1 ErrMin= 5.25D-02
 ErrMax= 5.25D-02  0.00D+00 EMaxC= 1.00D-01 BMatC= 8.37D-01 BMatP= 8.37D-01
 IDIUse=3 WtCom= 4.75D-01 WtEn= 5.25D-01
 Coeff-Com:  0.100D+01
 Coeff-En:   0.100D+01
 Coeff:      0.100D+01
 Gap=     0.102 Goal=   None    Shift=    0.000
 Gap=     0.278 Goal=   None    Shift=    0.000
 GapD=    0.102 DampG=1.000 DampE=0.500 DampFc=0.5000 IDamp=-1.
 Damping current iteration by 5.00D-01
 RMSDP=7.21D-03 MaxDP=3.37D-01              OVMax= 2.12D-01

 Cycle   2  Pass 1  IDiag  1:
 RMSU=  3.54D-03    CP:  9.40D-01
 E= -157.726314415791     Delta-E=       -0.089214023963 Rises=F Damp=T
 DIIS: error= 9.07D-03 at cycle   2 NSaved=   2.
 NSaved= 2 IEnMin= 2 EnMin= -157.726314415791     IErMin= 2 ErrMin= 9.07D-03
 ErrMax= 9.07D-03  0.00D+00 EMaxC= 1.00D-01 BMatC= 3.29D-02 BMatP= 8.37D-01
 IDIUse=3 WtCom= 9.09D-01 WtEn= 9.07D-02
 Coeff-Com:  0.724D-01 0.928D+00
 Coeff-En:   0.170D+00 0.830D+00
 Coeff:      0.813D-01 0.919D+00
 Gap=     0.187 Goal=   None    Shift=    0.000
 Gap=     0.351 Goal=   None    Shift=    0.000
 RMSDP=2.28D-03 MaxDP=1.46D-01 DE=-8.92D-02 OVMax= 1.56D-01

 Cycle   3  Pass 1  IDiag  1:
 RMSU=  1.63D-03    CP:  9.65D-01  5.55D-01
 E= -157.846460313593     Delta-E=       -0.120145897802 Rises=F Damp=F
 DIIS: error= 6.72D-03 at cycle   3 NSaved=   3.
 NSaved= 3 IEnMin= 3 EnMin= -157.846460313593     IErMin= 3 ErrMin= 6.72D-03
 ErrMax= 6.72D-03  0.00D+00 EMaxC= 1.00D-01 BMatC= 9.30D-03 BMatP= 3.29D-02
 IDIUse=3 WtCom= 9.33D-01 WtEn= 6.72D-02
 Coeff-Com: -0.639D-02 0.295D+00 0.711D+00
 Coeff-En:   0.000D+00 0.000D+00 0.100D+01
 Coeff:     -0.596D-02 0.276D+00 0.730D+00
 Gap=     0.169 Goal=   None    Shift=    0.000
 Gap=     0.305 Goal=   None    Shift=    0.000
 RMSDP=7.78D-04 MaxDP=2.25D-02 DE=-1.20D-01 OVMax= 2.82D-02

 Cycle   4  Pass 1  IDiag  1:
 RMSU=  4.36D-04    CP:  9.53D-01  7.00D-01  7.73D-01
 E= -157.848221368225     Delta-E=       -0.001761054632 Rises=F Damp=F
 DIIS: error= 4.44D-03 at cycle   4 NSaved=   4.
 NSaved= 4 IEnMin= 4 EnMin= -157.848221368225     IErMin= 4 ErrMin= 4.44D-03
 ErrMax= 4.44D-03  0.00D+00 EMaxC= 1.00D-01 BMatC= 3.42D-03 BMatP= 9.30D-03
 IDIUse=3 WtCom= 9.56D-01 WtEn= 4.44D-02
 Coeff-Com: -0.138D-01 0.379D-01 0.394D+00 0.582D+00
 Coeff-En:   0.000D+00 0.000D+00 0.230D+00 0.770D+00
 Coeff:     -0.132D-01 0.362D-01 0.386D+00 0.591D+00
 Gap=     0.178 Goal=   None    Shift=    0.000
 Gap=     0.302 Goal=   None    Shift=    0.000
 RMSDP=2.61D-04 MaxDP=1.22D-02 DE=-1.76D-03 OVMax= 1.23D-02

 Cycle   5  Pass 1  IDiag  1:
 RMSU=  1.12D-04    CP:  9.55D-01  6.48D-01  8.46D-01  7.97D-01
 E= -157.849045653822     Delta-E=       -0.000824285597 Rises=F Damp=F
 DIIS: error= 3.57D-04 at cycle   5 NSaved=   5.
 NSaved= 5 IEnMin= 5 EnMin= -157.849045653822     IErMin= 5 ErrMin= 3.57D-04
 ErrMax= 3.57D-04  0.00D+00 EMaxC= 1.00D-01 BMatC= 3.89D-05 BMatP= 3.42D-03
 IDIUse=3 WtCom= 9.96D-01 WtEn= 3.57D-03
 Coeff-Com: -0.164D-02-0.732D-02 0.514D-01 0.133D+00 0.824D+00
 Coeff-En:   0.000D+00 0.000D+00 0.000D+00 0.000D+00 0.100D+01
 Coeff:     -0.163D-02-0.729D-02 0.512D-01 0.133D+00 0.825D+00
 Gap=     0.178 Goal=   None    Shift=    0.000
 Gap=     0.303 Goal=   None    Shift=    0.000
 RMSDP=3.54D-05 MaxDP=1.37D-03 DE=-8.24D-04 OVMax= 1.52D-03

 Cycle   6  Pass 1  IDiag  1:
 RMSU=  2.73D-05    CP:  9.55D-01  6.42D-01  8.50D-01  7.84D-01  9.71D-01
 E= -157.849057099103     Delta-E=       -0.000011445281 Rises=F Damp=F
 DIIS: error= 1.19D-04 at cycle   6 NSaved=   6.
 NSaved= 6 IEnMin= 6 EnMin= -157.849057099103     IErMin= 6 ErrMin= 1.19D-04
 ErrMax= 1.19D-04  0.00D+00 EMaxC= 1.00D-01 BMatC= 2.86D-06 BMatP= 3.89D-05
 IDIUse=3 WtCom= 9.99D-01 WtEn= 1.19D-03
 Coeff-Com:  0.113D-02-0.401D-02-0.262D-01-0.349D-01 0.714D-01 0.993D+00
 Coeff-En:   0.000D+00 0.000D+00 0.000D+00 0.000D+00 0.000D+00 0.100D+01
 Coeff:      0.113D-02-0.400D-02-0.261D-01-0.349D-01 0.713D-01 0.993D+00
 Gap=     0.178 Goal=   None    Shift=    0.000
 Gap=     0.303 Goal=   None    Shift=    0.000
 RMSDP=1.56D-05 MaxDP=6.18D-04 DE=-1.14D-05 OVMax= 7.05D-04

 Cycle   7  Pass 1  IDiag  1:
 RMSU=  1.12D-05    CP:  9.55D-01  6.40D-01  8.54D-01  7.87D-01  1.02D+00
                    CP:  1.01D+00
 E= -157.849058454012     Delta-E=       -0.000001354909 Rises=F Damp=F
 DIIS: error= 5.27D-05 at cycle   7 NSaved=   7.
 NSaved= 7 IEnMin= 7 EnMin= -157.849058454012     IErMin= 7 ErrMin= 5.27D-05
 ErrMax= 5.27D-05  0.00D+00 EMaxC= 1.00D-01 BMatC= 5.96D-07 BMatP= 2.86D-06
 IDIUse=1 WtCom= 1.00D+00 WtEn= 0.00D+00
 Coeff-Com:  0.465D-03-0.275D-03-0.143D-01-0.260D-01-0.768D-01 0.329D+00
 Coeff-Com:  0.788D+00
 Coeff:      0.465D-03-0.275D-03-0.143D-01-0.260D-01-0.768D-01 0.329D+00
 Coeff:      0.788D+00
 Gap=     0.178 Goal=   None    Shift=    0.000
 Gap=     0.303 Goal=   None    Shift=    0.000
 RMSDP=9.17D-06 MaxDP=6.47D-04 DE=-1.35D-06 OVMax= 1.91D-04

 Cycle   8  Pass 1  IDiag  1:
 RMSU=  3.25D-06    CP:  9.55D-01  6.39D-01  8.51D-01  7.87D-01  1.04D+00
                    CP:  1.21D+00  7.15D-01
 E= -157.849058683840     Delta-E=       -0.000000229827 Rises=F Damp=F
 DIIS: error= 9.28D-06 at cycle   8 NSaved=   8.
 NSaved= 8 IEnMin= 8 EnMin= -157.849058683840     IErMin= 8 ErrMin= 9.28D-06
 ErrMax= 9.28D-06  0.00D+00 EMaxC= 1.00D-01 BMatC= 2.43D-08 BMatP= 5.96D-07
 IDIUse=1 WtCom= 1.00D+00 WtEn= 0.00D+00
 Coeff-Com: -0.138D-03 0.403D-03 0.145D-02 0.201D-02-0.826D-02-0.779D-01
 Coeff-Com:  0.250D-01 0.106D+01
 Coeff:     -0.138D-03 0.403D-03 0.145D-02 0.201D-02-0.826D-02-0.779D-01
 Coeff:      0.250D-01 0.106D+01
 Gap=     0.178 Goal=   None    Shift=    0.000
 Gap=     0.303 Goal=   None    Shift=    0.000
 RMSDP=1.05D-06 MaxDP=2.83D-05 DE=-2.30D-07 OVMax= 4.48D-05

 Cycle   9  Pass 1  IDiag  1:
 RMSU=  6.15D-07    CP:  9.55D-01  6.39D-01  8.51D-01  7.88D-01  1.04D+00
                    CP:  1.22D+00  7.59D-01  1.11D+00
 E= -157.849058697274     Delta-E=       -0.000000013434 Rises=F Damp=F
 DIIS: error= 2.22D-06 at cycle   9 NSaved=   9.
 NSaved= 9 IEnMin= 9 EnMin= -157.849058697274     IErMin= 9 ErrMin= 2.22D-06
 ErrMax= 2.22D-06  0.00D+00 EMaxC= 1.00D-01 BMatC= 7.91D-10 BMatP= 2.43D-08
 IDIUse=1 WtCom= 1.00D+00 WtEn= 0.00D+00
 Coeff-Com:  0.176D-04-0.485D-04 0.304D-03 0.561D-03 0.374D-02-0.129D-02
 Coeff-Com: -0.352D-01-0.146D+00 0.118D+01
 Coeff:      0.176D-04-0.485D-04 0.304D-03 0.561D-03 0.374D-02-0.129D-02
 Coeff:     -0.352D-01-0.146D+00 0.118D+01
 Gap=     0.178 Goal=   None    Shift=    0.000
 Gap=     0.303 Goal=   None    Shift=    0.000
 RMSDP=2.37D-07 MaxDP=7.14D-06 DE=-1.34D-08 OVMax= 1.34D-05

 Cycle  10  Pass 1  IDiag  1:
 RMSU=  1.37D-07    CP:  9.55D-01  6.39D-01  8.51D-01  7.88D-01  1.04D+00
                    CP:  1.22D+00  7.57D-01  1.14D+00  1.22D+00
 E= -157.849058697865     Delta-E=       -0.000000000591 Rises=F Damp=F
 DIIS: error= 2.97D-07 at cycle  10 NSaved=  10.
 NSaved=10 IEnMin=10 EnMin= -157.849058697865     IErMin=10 ErrMin= 2.97D-07
 ErrMax= 2.97D-07  0.00D+00 EMaxC= 1.00D-01 BMatC= 2.91D-11 BMatP= 7.91D-10
 IDIUse=1 WtCom= 1.00D+00 WtEn= 0.00D+00
 Coeff-Com:  0.992D-06-0.515D-05-0.634D-04-0.807D-04-0.117D-03 0.189D-02
 Coeff-Com:  0.302D-02-0.746D-02-0.189D+00 0.119D+01
 Coeff:      0.992D-06-0.515D-05-0.634D-04-0.807D-04-0.117D-03 0.189D-02
 Coeff:      0.302D-02-0.746D-02-0.189D+00 0.119D+01
 Gap=     0.178 Goal=   None    Shift=    0.000
 Gap=     0.303 Goal=   None    Shift=    0.000
 RMSDP=8.13D-08 MaxDP=4.94D-06 DE=-5.91D-10 OVMax= 2.65D-06

 Cycle  11  Pass 1  IDiag  1:
 RMSU=  2.23D-08    CP:  9.55D-01  6.39D-01  8.51D-01  7.88D-01  1.04D+00
                    CP:  1.22D+00  7.58D-01  1.13D+00  1.25D+00  1.32D+00
 E= -157.849058697886     Delta-E=       -0.000000000021 Rises=F Damp=F
 DIIS: error= 1.31D-07 at cycle  11 NSaved=  11.
 NSaved=11 IEnMin=11 EnMin= -157.849058697886     IErMin=11 ErrMin= 1.31D-07
 ErrMax= 1.31D-07  0.00D+00 EMaxC= 1.00D-01 BMatC= 5.48D-12 BMatP= 2.91D-11
 IDIUse=1 WtCom= 1.00D+00 WtEn= 0.00D+00
 Coeff-Com: -0.491D-06 0.685D-07-0.344D-04-0.541D-04-0.190D-03 0.708D-03
 Coeff-Com:  0.237D-02 0.320D-02-0.106D+00 0.366D+00 0.734D+00
 Coeff:     -0.491D-06 0.685D-07-0.344D-04-0.541D-04-0.190D-03 0.708D-03
 Coeff:      0.237D-02 0.320D-02-0.106D+00 0.366D+00 0.734D+00
 Gap=     0.178 Goal=   None    Shift=    0.000
 Gap=     0.303 Goal=   None    Shift=    0.000
 RMSDP=1.02D-08 MaxDP=3.67D-07 DE=-2.06D-11 OVMax= 4.60D-07

 Cycle  12  Pass 1  IDiag  1:
 RMSU=  7.84D-09    CP:  9.55D-01  6.39D-01  8.51D-01  7.88D-01  1.04D+00
                    CP:  1.22D+00  7.58D-01  1.13D+00  1.25D+00  1.36D+00
                    CP:  9.51D-01
 E= -157.849058697887     Delta-E=       -0.000000000001 Rises=F Damp=F
 DIIS: error= 6.87D-08 at cycle  12 NSaved=  12.
 NSaved=12 IEnMin=12 EnMin= -157.849058697887     IErMin=12 ErrMin= 6.87D-08
 ErrMax= 6.87D-08  0.00D+00 EMaxC= 1.00D-01 BMatC= 1.71D-12 BMatP= 5.48D-12
 IDIUse=1 WtCom= 1.00D+00 WtEn= 0.00D+00
 Coeff-Com: -0.423D-06 0.911D-06-0.555D-05-0.138D-04-0.726D-04 0.827D-05
 Coeff-Com:  0.583D-03 0.266D-02-0.127D-01-0.634D-01 0.367D+00 0.706D+00
 Coeff:     -0.423D-06 0.911D-06-0.555D-05-0.138D-04-0.726D-04 0.827D-05
 Coeff:      0.583D-03 0.266D-02-0.127D-01-0.634D-01 0.367D+00 0.706D+00
 Gap=     0.178 Goal=   None    Shift=    0.000
 Gap=     0.303 Goal=   None    Shift=    0.000
 RMSDP=3.87D-09 MaxDP=1.26D-07 DE=-1.08D-12 OVMax= 1.73D-07

 SCF Done:  E(UB3LYP) =  -157.849058698     A.U. after   12 cycles
            NFock= 12  Conv=0.39D-08     -V/T= 2.0051
 <Sx>= 0.0000 <Sy>= 0.0000 <Sz>= 0.5000 <S**2>= 0.7541 S= 0.5021
 <L.S>=  0.00000000000    
 KE= 1.570475854702D+02 PE=-6.157085961084D+02 EE= 1.754302380145D+02
 Annihilation of the first spin contaminant:
 S**2 before annihilation     0.7541,   after     0.7500
 Leave Link  502 at Wed Sep  5 16:56:14 2018, MaxMem=   805306368 cpu:              64.2 elap:               8.0
 (Enter /home/g16/l601.exe)
 Copying SCF densities to generalized density rwf, IOpCl= 1 IROHF=0.

 **********************************************************************

            Population analysis using the SCF density.

 **********************************************************************

 Orbital symmetries:
 Alpha Orbitals:
       Occupied  (A) (A) (A) (A) (A) (A) (A) (A) (A) (A) (A) (A)
                 (A) (A) (A) (A) (A)
       Virtual   (A) (A) (A) (A) (A) (A) (A) (A) (A) (A) (A) (A)
                 (A) (A) (A) (A) (A) (A) (A) (A) (A) (A) (A) (A)
                 (A) (A) (A) (A) (A) (A) (A) (A) (A) (A) (A) (A)
                 (A) (A) (A) (A) (A) (A) (A) (A) (A) (A) (A) (A)
                 (A) (A) (A) (A) (A) (A) (A) (A) (A) (A) (A) (A)
                 (A) (A) (A) (A) (A) (A) (A) (A) (A) (A) (A) (A)
                 (A) (A) (A) (A) (A) (A) (A) (A) (A) (A) (A) (A)
                 (A) (A) (A) (A) (A) (A) (A) (A) (A) (A) (A) (A)
                 (A) (A) (A) (A) (A) (A) (A) (A) (A) (A) (A) (A)
                 (A) (A) (A) (A) (A) (A) (A) (A) (A) (A) (A) (A)
                 (A) (A) (A) (A) (A) (A) (A) (A) (A) (A) (A) (A)
                 (A) (A) (A) (A) (A) (A) (A) (A) (A) (A) (A) (A)
                 (A)
 Beta  Orbitals:
       Occupied  (A) (A) (A) (A) (A) (A) (A) (A) (A) (A) (A) (A)
                 (A) (A) (A) (A)
       Virtual   (A) (A) (A) (A) (A) (A) (A) (A) (A) (A) (A) (A)
                 (A) (A) (A) (A) (A) (A) (A) (A) (A) (A) (A) (A)
                 (A) (A) (A) (A) (A) (A) (A) (A) (A) (A) (A) (A)
                 (A) (A) (A) (A) (A) (A) (A) (A) (A) (A) (A) (A)
                 (A) (A) (A) (A) (A) (A) (A) (A) (A) (A) (A) (A)
                 (A) (A) (A) (A) (A) (A) (A) (A) (A) (A) (A) (A)
                 (A) (A) (A) (A) (A) (A) (A) (A) (A) (A) (A) (A)
                 (A) (A) (A) (A) (A) (A) (A) (A) (A) (A) (A) (A)
                 (A) (A) (A) (A) (A) (A) (A) (A) (A) (A) (A) (A)
                 (A) (A) (A) (A) (A) (A) (A) (A) (A) (A) (A) (A)
                 (A) (A) (A) (A) (A) (A) (A) (A) (A) (A) (A) (A)
                 (A) (A) (A) (A) (A) (A) (A) (A) (A) (A) (A) (A)
                 (A) (A)
 The electronic state is 2-A.
 Alpha  occ. eigenvalues --  -10.17557 -10.15984 -10.15984 -10.15982  -0.80541
 Alpha  occ. eigenvalues --   -0.69301  -0.69300  -0.53867  -0.44729  -0.44292
 Alpha  occ. eigenvalues --   -0.44289  -0.38869  -0.38864  -0.36980  -0.34800
 Alpha  occ. eigenvalues --   -0.34800  -0.17517
 Alpha virt. eigenvalues --    0.00279   0.03031   0.03032   0.04145   0.05671
 Alpha virt. eigenvalues --    0.05673   0.06572   0.07296   0.07299   0.10625
 Alpha virt. eigenvalues --    0.11268   0.12266   0.12267   0.13241   0.13254
 Alpha virt. eigenvalues --    0.13972   0.18696   0.18707   0.20676   0.21485
 Alpha virt. eigenvalues --    0.21490   0.22849   0.23023   0.25663   0.25794
 Alpha virt. eigenvalues --    0.25803   0.29943   0.29946   0.39219   0.39229
 Alpha virt. eigenvalues --    0.40858   0.45673   0.45684   0.48436   0.48714
 Alpha virt. eigenvalues --    0.48724   0.50169   0.56232   0.57003   0.57013
 Alpha virt. eigenvalues --    0.60049   0.60289   0.60295   0.61406   0.63315
 Alpha virt. eigenvalues --    0.63337   0.64494   0.68391   0.68433   0.71189
 Alpha virt. eigenvalues --    0.74106   0.74112   0.78610   0.90090   0.90097
 Alpha virt. eigenvalues --    0.92888   0.92894   0.97469   0.99290   1.00857
 Alpha virt. eigenvalues --    1.00871   1.07184   1.15654   1.17984   1.18027
 Alpha virt. eigenvalues --    1.28932   1.29449   1.29461   1.32494   1.32505
 Alpha virt. eigenvalues --    1.38429   1.45077   1.45084   1.47468   1.50086
 Alpha virt. eigenvalues --    1.50099   1.70291   1.75675   1.75700   1.83937
 Alpha virt. eigenvalues --    1.83980   1.86023   1.93679   1.93703   1.95025
 Alpha virt. eigenvalues --    2.16002   2.16813   2.16824   2.22127   2.22171
 Alpha virt. eigenvalues --    2.24663   2.30906   2.33768   2.34490   2.35346
 Alpha virt. eigenvalues --    2.35361   2.36994   2.37021   2.46268   2.46277
 Alpha virt. eigenvalues --    2.65408   2.65459   2.66836   2.66892   2.66919
 Alpha virt. eigenvalues --    2.69694   2.77240   2.84255   2.84280   2.89501
 Alpha virt. eigenvalues --    3.08512   3.08535   3.17807   3.19810   3.21181
 Alpha virt. eigenvalues --    3.21196   3.23214   3.23322   3.34845   3.40875
 Alpha virt. eigenvalues --    3.40904   3.47039   3.51751   3.51843   3.56694
 Alpha virt. eigenvalues --    3.56747   3.57108   3.63004   3.63072   3.64505
 Alpha virt. eigenvalues --    3.88784   3.88872   4.00586   4.18381   4.18403
 Alpha virt. eigenvalues --    4.22479   4.24447   4.33334   4.33380   4.60948
 Alpha virt. eigenvalues --    4.60958  23.71427  23.93601  24.06047  24.06056
  Beta  occ. eigenvalues --  -10.16172 -10.16064 -10.16064 -10.16057  -0.78875
  Beta  occ. eigenvalues --   -0.69074  -0.69073  -0.52017  -0.43905  -0.43904
  Beta  occ. eigenvalues --   -0.42795  -0.38265  -0.38260  -0.36874  -0.34314
  Beta  occ. eigenvalues --   -0.34313
  Beta virt. eigenvalues --   -0.04034   0.00377   0.03032   0.03033   0.04211
  Beta virt. eigenvalues --    0.05664   0.05666   0.06725   0.07259   0.07261
  Beta virt. eigenvalues --    0.10584   0.12048   0.12246   0.12249   0.13388
  Beta virt. eigenvalues --    0.13397   0.14802   0.18848   0.18860   0.20740
  Beta virt. eigenvalues --    0.21494   0.21500   0.22901   0.24101   0.26119
  Beta virt. eigenvalues --    0.26127   0.27211   0.30478   0.30481   0.39379
  Beta virt. eigenvalues --    0.39390   0.41354   0.45903   0.45914   0.48550
  Beta virt. eigenvalues --    0.48817   0.48828   0.51661   0.57433   0.57446
  Beta virt. eigenvalues --    0.58209   0.60930   0.60936   0.61411   0.61948
  Beta virt. eigenvalues --    0.63370   0.63392   0.66070   0.68912   0.68956
  Beta virt. eigenvalues --    0.72841   0.74508   0.74513   0.78961   0.90146
  Beta virt. eigenvalues --    0.90149   0.93663   0.93669   0.97402   1.00280
  Beta virt. eigenvalues --    1.01360   1.01375   1.07809   1.15631   1.18225
  Beta virt. eigenvalues --    1.18267   1.29734   1.29744   1.29812   1.34257
  Beta virt. eigenvalues --    1.34262   1.41018   1.45823   1.45829   1.47887
  Beta virt. eigenvalues --    1.50511   1.50525   1.71265   1.76265   1.76292
  Beta virt. eigenvalues --    1.84307   1.84351   1.86362   1.94258   1.94281
  Beta virt. eigenvalues --    1.95453   2.17034   2.17138   2.17147   2.22402
  Beta virt. eigenvalues --    2.22444   2.24831   2.32430   2.34218   2.34781
  Beta virt. eigenvalues --    2.35899   2.35918   2.37544   2.37574   2.46872
  Beta virt. eigenvalues --    2.46881   2.66031   2.66080   2.67179   2.67210
  Beta virt. eigenvalues --    2.68058   2.69920   2.78025   2.84865   2.84889
  Beta virt. eigenvalues --    2.93196   3.08887   3.08910   3.17732   3.21567
  Beta virt. eigenvalues --    3.21578   3.22574   3.23312   3.23419   3.36436
  Beta virt. eigenvalues --    3.40755   3.40785   3.48462   3.51744   3.51833
  Beta virt. eigenvalues --    3.57218   3.57267   3.57903   3.64308   3.68116
  Beta virt. eigenvalues --    3.68173   3.89733   3.89814   4.03453   4.18497
  Beta virt. eigenvalues --    4.18520   4.22395   4.24715   4.33456   4.33502
  Beta virt. eigenvalues --    4.61816   4.61826  23.73013  23.93523  24.05972
  Beta virt. eigenvalues --   24.05982
     Alpha Molecular Orbital Coefficients:
                           1         2         3         4         5
                           O         O         O         O         O
     Eigenvalues --   -10.17557 -10.15984 -10.15984 -10.15982  -0.80541
   1 1   C  1S          0.56259  -0.00128  -0.00047  -0.00860  -0.08168
   2        2S          0.46347  -0.00106  -0.00039  -0.00709  -0.12734
   3        2PX        -0.00000  -0.00067   0.00021   0.00009   0.00001
   4        2PY        -0.00000  -0.00020  -0.00068   0.00007   0.00002
   5        2PZ         0.00002   0.00001   0.00000   0.00006   0.01070
   6        3S          0.01946   0.00019   0.00007   0.00131   0.33486
   7        3PX         0.00000   0.00117  -0.00036  -0.00015   0.00001
   8        3PY         0.00000   0.00034   0.00118  -0.00012   0.00003
   9        3PZ         0.00068  -0.00001  -0.00001  -0.00010   0.01514
  10        4S         -0.00689  -0.00005  -0.00002  -0.00036   0.18758
  11        4PX         0.00000  -0.00163   0.00050   0.00022   0.00003
  12        4PY         0.00001  -0.00048  -0.00164   0.00017  -0.00001
  13        4PZ        -0.00115   0.00022   0.00008   0.00145   0.00666
  14        5S          0.03851   0.00304   0.00113   0.02031  -0.20305
  15        5PX        -0.00000  -0.01010   0.00308   0.00135  -0.00001
  16        5PY        -0.00000  -0.00299  -0.01025   0.00102   0.00006
  17        5PZ         0.00285   0.00002   0.00001   0.00017  -0.01189
  18        6D 0        0.00001  -0.00002  -0.00001  -0.00013  -0.00358
  19        6D+1        0.00000  -0.00004   0.00001   0.00001   0.00000
  20        6D-1        0.00000  -0.00001  -0.00004   0.00000   0.00000
  21        6D+2        0.00000   0.00023   0.00024  -0.00005   0.00000
  22        6D-2        0.00000   0.00024  -0.00024  -0.00002  -0.00000
  23        7D 0       -0.00056   0.00024   0.00009   0.00162  -0.00282
  24        7D+1        0.00000   0.00060  -0.00018  -0.00008   0.00000
  25        7D-1        0.00000   0.00018   0.00060  -0.00006  -0.00001
  26        7D+2       -0.00000  -0.00282  -0.00287   0.00058   0.00000
  27        7D-2       -0.00000  -0.00286   0.00287   0.00027   0.00000
  28 2   C  1S          0.00500  -0.14980  -0.39406   0.37308  -0.05202
  29        2S          0.00412  -0.12319  -0.32410   0.30695  -0.08021
  30        2PX        -0.00010  -0.00023   0.00011   0.00001  -0.00430
  31        2PY        -0.00061   0.00002  -0.00002  -0.00013  -0.02600
  32        2PZ        -0.00008   0.00004   0.00007   0.00008  -0.00153
  33        3S          0.00062  -0.00573  -0.01473   0.01286   0.20733
  34        3PX         0.00030   0.00121  -0.00053   0.00002  -0.00708
  35        3PY         0.00181   0.00007   0.00038   0.00104  -0.04282
  36        3PZ         0.00024  -0.00024  -0.00042  -0.00028  -0.00258
  37        4S          0.00101   0.00276   0.00662  -0.00425   0.09966
  38        4PX         0.00019   0.00055  -0.00069   0.00006  -0.00173
  39        4PY         0.00113  -0.00101  -0.00196   0.00090  -0.01040
  40        4PZ         0.00097  -0.00064  -0.00108  -0.00084  -0.00263
  41        5S         -0.01252   0.00760   0.01805  -0.01086   0.07276
  42        5PX         0.00052   0.00036  -0.00079   0.00024  -0.00259
  43        5PY         0.00311  -0.00138  -0.00301   0.00187  -0.01566
  44        5PZ         0.00000  -0.00007  -0.00029   0.00056  -0.00069
  45        6D 0        0.00002   0.00009   0.00017   0.00006  -0.00223
  46        6D+1       -0.00000   0.00002  -0.00002  -0.00002   0.00010
  47        6D-1       -0.00000  -0.00003  -0.00004  -0.00008   0.00057
  48        6D+2        0.00008   0.00002   0.00004   0.00008  -0.00337
  49        6D-2       -0.00003  -0.00004   0.00000  -0.00002   0.00115
  50        7D 0        0.00119  -0.00074  -0.00143  -0.00027  -0.00471
  51        7D+1       -0.00007  -0.00074   0.00037   0.00010   0.00003
  52        7D-1       -0.00045   0.00014  -0.00004   0.00005   0.00020
  53        7D+2        0.00160  -0.00018  -0.00005   0.00110  -0.00534
  54        7D-2       -0.00054  -0.00068   0.00038  -0.00029   0.00182
  55 3   H  1S         -0.00009  -0.00015  -0.00014   0.00015   0.03084
  56        2S         -0.00098  -0.00003   0.00186  -0.00303   0.03699
  57        3S          0.00043  -0.00036  -0.00252   0.00245  -0.00467
  58        4PX         0.00025  -0.00029  -0.00126   0.00123  -0.00563
  59        4PY         0.00003   0.00013  -0.00030   0.00042  -0.00295
  60        4PZ        -0.00011   0.00015   0.00039  -0.00074   0.00255
  61 4   H  1S         -0.00009   0.00001  -0.00022   0.00013   0.03084
  62        2S         -0.00098   0.00089   0.00140  -0.00315   0.03700
  63        3S          0.00043  -0.00129  -0.00205   0.00257  -0.00468
  64        4PX        -0.00023   0.00048   0.00101  -0.00105   0.00438
  65        4PY         0.00010  -0.00041  -0.00048   0.00085  -0.00461
  66        4PZ        -0.00011   0.00007   0.00042  -0.00073   0.00254
  67 5   H  1S         -0.00013   0.00001  -0.00004   0.00021   0.03151
  68        2S         -0.00133   0.00145   0.00334  -0.00171   0.03974
  69        3S         -0.00062  -0.00104  -0.00260   0.00209  -0.00139
  70        4PX         0.00001   0.00015  -0.00015   0.00001  -0.00044
  71        4PY         0.00007  -0.00019  -0.00035   0.00018  -0.00260
  72        4PZ         0.00032  -0.00060  -0.00151   0.00125  -0.00667
  73 6   C  1S          0.00499  -0.20777   0.39923   0.33817  -0.05200
  74        2S          0.00411  -0.17087   0.32836   0.27824  -0.08019
  75        2PX        -0.00048  -0.00015  -0.00010  -0.00007  -0.02036
  76        2PY         0.00039  -0.00016  -0.00011   0.00011   0.01672
  77        2PZ        -0.00008   0.00005  -0.00006   0.00008  -0.00153
  78        3S          0.00062  -0.00789   0.01481   0.01156   0.20728
  79        3PX         0.00142   0.00092   0.00036   0.00068  -0.03353
  80        3PY        -0.00116   0.00065   0.00067  -0.00083   0.02753
  81        3PZ         0.00024  -0.00030   0.00035  -0.00031  -0.00258
  82        4S          0.00102   0.00372  -0.00650  -0.00367   0.09959
  83        4PX         0.00088  -0.00052   0.00181   0.00048  -0.00814
  84        4PY        -0.00072   0.00126  -0.00090  -0.00056   0.00665
  85        4PZ         0.00097  -0.00078   0.00090  -0.00093  -0.00263
  86        5S         -0.01254   0.01013  -0.01760  -0.00925   0.07290
  87        5PX         0.00244  -0.00100   0.00257   0.00118  -0.01230
  88        5PY        -0.00200   0.00152  -0.00164  -0.00109   0.01008
  89        5PZ         0.00000  -0.00011   0.00033   0.00053  -0.00070
  90        6D 0        0.00002   0.00011  -0.00014   0.00007  -0.00223
  91        6D+1       -0.00000  -0.00002   0.00003  -0.00007   0.00045
  92        6D-1        0.00000   0.00004  -0.00001   0.00005  -0.00037
  93        6D+2       -0.00002  -0.00004  -0.00002  -0.00001   0.00069
  94        6D-2        0.00009   0.00002  -0.00003   0.00008  -0.00349
  95        7D 0        0.00119  -0.00094   0.00128  -0.00039  -0.00470
  96        7D+1       -0.00035  -0.00042  -0.00031   0.00014   0.00016
  97        7D-1        0.00029  -0.00055  -0.00036   0.00005  -0.00013
  98        7D+2       -0.00033  -0.00064  -0.00048  -0.00010   0.00110
  99        7D-2        0.00166  -0.00011   0.00019   0.00112  -0.00553
 100 7   H  1S         -0.00009  -0.00002   0.00023   0.00011   0.03083
 101        2S         -0.00098   0.00110  -0.00152  -0.00302   0.03698
 102        3S          0.00044  -0.00159   0.00206   0.00239  -0.00469
 103        4PX        -0.00010   0.00016  -0.00045  -0.00019   0.00026
 104        4PY        -0.00023   0.00077  -0.00104  -0.00124   0.00636
 105        4PZ        -0.00011   0.00014  -0.00046  -0.00068   0.00252
 106 8   H  1S         -0.00009  -0.00017   0.00013   0.00014   0.03083
 107        2S         -0.00099   0.00026  -0.00211  -0.00285   0.03700
 108        3S          0.00043  -0.00073   0.00265   0.00222  -0.00466
 109        4PX         0.00021  -0.00031   0.00122   0.00110  -0.00617
 110        4PY         0.00015  -0.00037   0.00060   0.00044  -0.00148
 111        4PZ        -0.00011   0.00021  -0.00043  -0.00070   0.00256
 112 9   H  1S         -0.00013  -0.00000   0.00006   0.00020   0.03150
 113        2S         -0.00133   0.00194  -0.00323  -0.00142   0.03974
 114        3S         -0.00062  -0.00142   0.00259   0.00186  -0.00139
 115        4PX         0.00006  -0.00007   0.00035   0.00009  -0.00205
 116        4PY        -0.00005   0.00026  -0.00014  -0.00011   0.00165
 117        4PZ         0.00032  -0.00082   0.00151   0.00112  -0.00667
 118 10  C  1S          0.00500   0.50133   0.04770   0.25160  -0.05199
 119        2S          0.00411   0.41235   0.03924   0.20704  -0.08017
 120        2PX         0.00058   0.00001   0.00010   0.00011   0.02466
 121        2PY         0.00022   0.00002  -0.00024   0.00006   0.00927
 122        2PZ        -0.00008  -0.00006   0.00000   0.00010  -0.00154
 123        3S          0.00062   0.01851   0.00172   0.00834   0.20724
 124        3PX        -0.00171   0.00011  -0.00051  -0.00101   0.04060
 125        3PY        -0.00064  -0.00006   0.00123  -0.00045   0.01527
 126        3PZ         0.00024   0.00039   0.00001  -0.00040  -0.00258
 127        4S          0.00102  -0.00800  -0.00069  -0.00223   0.09960
 128        4PX        -0.00106  -0.00222  -0.00045  -0.00025   0.00986
 129        4PY        -0.00040  -0.00089   0.00067  -0.00014   0.00369
 130        4PZ         0.00097   0.00099   0.00002  -0.00115  -0.00264
 131        5S         -0.01254  -0.02154  -0.00186  -0.00537   0.07284
 132        5PX        -0.00296  -0.00344  -0.00053  -0.00086   0.01488
 133        5PY        -0.00111  -0.00135   0.00050  -0.00035   0.00558
 134        5PZ         0.00000   0.00043   0.00006   0.00046  -0.00070
 135        6D 0        0.00002  -0.00017  -0.00001   0.00011  -0.00223
 136        6D+1        0.00000  -0.00003  -0.00001   0.00009  -0.00054
 137        6D-1        0.00000  -0.00001   0.00002   0.00003  -0.00020
 138        6D+2       -0.00007   0.00002  -0.00003  -0.00007   0.00268
 139        6D-2       -0.00006   0.00001   0.00003  -0.00006   0.00234
 140        7D 0        0.00119   0.00148   0.00008  -0.00069  -0.00471
 141        7D+1        0.00042  -0.00001   0.00030  -0.00008  -0.00019
 142        7D-1        0.00016   0.00006  -0.00079   0.00001  -0.00007
 143        7D+2       -0.00127  -0.00028  -0.00057  -0.00078   0.00424
 144        7D-2       -0.00112  -0.00032   0.00054  -0.00073   0.00372
 145 11  H  1S         -0.00009   0.00023  -0.00007   0.00009   0.03083
 146        2S         -0.00099  -0.00236  -0.00081  -0.00253   0.03699
 147        3S          0.00043   0.00294   0.00082   0.00177  -0.00466
 148        4PX        -0.00015  -0.00103  -0.00037  -0.00075   0.00537
 149        4PY         0.00021   0.00116   0.00016   0.00057  -0.00339
 150        4PZ        -0.00011  -0.00059  -0.00003  -0.00061   0.00255
 151 12  H  1S         -0.00009   0.00021   0.00011   0.00008   0.03083
 152        2S         -0.00098  -0.00243   0.00023  -0.00259   0.03698
 153        3S          0.00044   0.00301  -0.00023   0.00182  -0.00469
 154        4PX         0.00003  -0.00003   0.00015  -0.00020   0.00180
 155        4PY        -0.00025  -0.00158   0.00005  -0.00095   0.00610
 156        4PZ        -0.00011  -0.00058  -0.00011  -0.00060   0.00253
 157 13  H  1S         -0.00013   0.00008   0.00001   0.00019   0.03148
 158        2S         -0.00133  -0.00395  -0.00031  -0.00070   0.03973
 159        3S         -0.00062   0.00322   0.00029   0.00129  -0.00139
 160        4PX        -0.00007  -0.00041  -0.00010  -0.00006   0.00247
 161        4PY        -0.00003  -0.00016   0.00017  -0.00003   0.00091
 162        4PZ         0.00032   0.00189   0.00017   0.00079  -0.00666
                           6         7         8         9        10
                           O         O         O         O         O
     Eigenvalues --    -0.69301  -0.69300  -0.53867  -0.44729  -0.44292
   1 1   C  1S         -0.00000   0.00001  -0.07646   0.00381   0.00000
   2        2S         -0.00001   0.00001  -0.12135   0.00607   0.00000
   3        2PX        -0.07442   0.01132  -0.00000   0.00021  -0.00619
   4        2PY         0.01132   0.07442   0.00000  -0.00001   0.11093
   5        2PZ        -0.00000   0.00000   0.00144   0.10627   0.00002
   6        3S          0.00002  -0.00003   0.33833  -0.01594  -0.00001
   7        3PX        -0.11167   0.01698  -0.00001   0.00030  -0.00914
   8        3PY         0.01699   0.11165   0.00000  -0.00002   0.16383
   9        3PZ        -0.00001   0.00001   0.00084   0.16840   0.00003
  10        4S         -0.00001   0.00001   0.22854  -0.02910   0.00006
  11        4PX        -0.05556   0.00846   0.00007   0.00006  -0.00375
  12        4PY         0.00845   0.05564   0.00008   0.00001   0.06732
  13        4PZ         0.00000  -0.00000   0.00121   0.09898   0.00004
  14        5S         -0.00008   0.00005  -0.01792   0.10714   0.00033
  15        5PX         0.07220  -0.01099  -0.00002  -0.00022  -0.00075
  16        5PY        -0.01100  -0.07242  -0.00007  -0.00057   0.01316
  17        5PZ        -0.00001   0.00001  -0.00645  -0.01000   0.00003
  18        6D 0       -0.00000   0.00000  -0.00046   0.00172   0.00000
  19        6D+1       -0.00183   0.00028   0.00000   0.00001  -0.00006
  20        6D-1        0.00028   0.00183   0.00000   0.00001   0.00107
  21        6D+2        0.00237  -0.00669  -0.00000   0.00000   0.00016
  22        6D-2        0.00668   0.00237  -0.00000  -0.00000  -0.00010
  23        7D 0        0.00000  -0.00000   0.00488   0.00817   0.00002
  24        7D+1       -0.00332   0.00050   0.00001   0.00002   0.00001
  25        7D-1        0.00050   0.00333   0.00000   0.00003  -0.00002
  26        7D+2        0.00294  -0.00829   0.00001   0.00001   0.01792
  27        7D-2        0.00829   0.00294  -0.00000   0.00004  -0.01092
  28 2   C  1S          0.00115  -0.08941   0.02899   0.00089   0.00733
  29        2S          0.00178  -0.13871   0.04513   0.00133   0.01136
  30        2PX        -0.01436   0.00104  -0.01475  -0.00248  -0.04316
  31        2PY         0.00228   0.00750  -0.08917  -0.01648  -0.08176
  32        2PZ        -0.00001   0.00028  -0.01137   0.10511  -0.02421
  33        3S         -0.00468   0.36544  -0.11832  -0.00254  -0.02717
  34        3PX        -0.01984   0.00025  -0.02102  -0.00368  -0.06036
  35        3PY         0.00324   0.00310  -0.12705  -0.02427  -0.12018
  36        3PZ        -0.00001   0.00042  -0.01544   0.14609  -0.03472
  37        4S         -0.00259   0.20196  -0.10045  -0.00069  -0.02034
  38        4PX        -0.00597   0.00263  -0.01097  -0.00191  -0.03884
  39        4PY         0.00077   0.01638  -0.06624  -0.01282  -0.08431
  40        4PZ        -0.00005   0.00338  -0.01219   0.09062  -0.02351
  41        5S         -0.00192   0.15311  -0.00294  -0.03325  -0.06992
  42        5PX        -0.00536  -0.00515  -0.00029   0.00140  -0.00029
  43        5PY         0.00128  -0.03073  -0.00168   0.00825   0.01683
  44        5PZ         0.00005  -0.00431   0.00031   0.01381  -0.00016
  45        6D 0        0.00000  -0.00050  -0.00387   0.00471  -0.00409
  46        6D+1        0.00057   0.00005   0.00023   0.00005   0.00150
  47        6D-1       -0.00010   0.00025   0.00142   0.00029   0.00060
  48        6D+2        0.00044  -0.00041  -0.00679  -0.00282  -0.00491
  49        6D-2        0.00127   0.00016   0.00231   0.00096   0.00111
  50        7D 0       -0.00001   0.00043  -0.00386   0.00055  -0.00576
  51        7D+1       -0.00010   0.00011   0.00037  -0.00123   0.00063
  52        7D-1        0.00001   0.00066   0.00223  -0.00745   0.00204
  53        7D+2        0.00155  -0.00088  -0.00847  -0.00171  -0.00459
  54        7D-2        0.00453   0.00037   0.00289   0.00058   0.00201
  55 3   H  1S         -0.00811   0.07158  -0.05249  -0.04244  -0.04722
  56        2S         -0.01143   0.08942  -0.06750  -0.06179  -0.06554
  57        3S         -0.00230  -0.00415  -0.01483  -0.01978  -0.01396
  58        4PX         0.00079  -0.01249   0.00693   0.00671   0.00521
  59        4PY         0.00090  -0.00368  -0.00146   0.00170  -0.00258
  60        4PZ        -0.00090   0.00604  -0.00425   0.00315  -0.00495
  61 4   H  1S          0.00629   0.07177  -0.05247  -0.04260  -0.00814
  62        2S          0.00916   0.08970  -0.06746  -0.06203  -0.00964
  63        3S          0.00240  -0.00409  -0.01485  -0.01988   0.00481
  64        4PX         0.00019   0.01067  -0.00704  -0.00581  -0.00404
  65        4PY        -0.00092  -0.00753   0.00085   0.00378  -0.00470
  66        4PZ         0.00074   0.00604  -0.00423   0.00315  -0.00197
  67 5   H  1S         -0.00093   0.07152  -0.05362   0.08024  -0.04699
  68        2S         -0.00115   0.08869  -0.06949   0.11634  -0.06509
  69        3S          0.00007  -0.00461  -0.01015   0.03467  -0.01719
  70        4PX        -0.00077  -0.00050  -0.00036  -0.00079  -0.00219
  71        4PY         0.00017  -0.00291  -0.00223  -0.00478  -0.00282
  72        4PZ         0.00017  -0.01349   0.00864  -0.00817   0.00618
  73 6   C  1S          0.07686   0.04572   0.02899   0.00090  -0.00508
  74        2S          0.11924   0.07092   0.04513   0.00134  -0.00787
  75        2PX        -0.00974   0.00493  -0.06986  -0.01286   0.10965
  76        2PY        -0.00162   0.01211   0.05733   0.01074   0.03777
  77        2PZ        -0.00024  -0.00014  -0.01136   0.10502   0.01681
  78        3S         -0.31413  -0.18685  -0.11831  -0.00256   0.01884
  79        3PX        -0.00858   0.00973  -0.09953  -0.01897   0.15437
  80        3PY        -0.00626   0.01435   0.08169   0.01582   0.04779
  81        3PZ        -0.00036  -0.00021  -0.01543   0.14597   0.02411
  82        4S         -0.17367  -0.10325  -0.10036  -0.00070   0.01403
  83        4PX        -0.01296  -0.00328  -0.05195  -0.01003   0.10066
  84        4PY         0.00665   0.00936   0.04258   0.00837   0.02475
  85        4PZ        -0.00291  -0.00170  -0.01221   0.09051   0.01632
  86        5S         -0.13136  -0.07833  -0.00313  -0.03483   0.04831
  87        5PX         0.01887   0.01534  -0.00129   0.00681  -0.00234
  88        5PY        -0.01914  -0.00644   0.00104  -0.00552   0.01518
  89        5PZ         0.00369   0.00221   0.00033   0.01384   0.00011
  90        6D 0        0.00043   0.00026  -0.00387   0.00470   0.00288
  91        6D+1        0.00002  -0.00042   0.00111   0.00026  -0.00341
  92        6D-1        0.00037  -0.00030  -0.00091  -0.00015  -0.00323
  93        6D+2        0.00060  -0.00118   0.00140   0.00058   0.00109
  94        6D-2        0.00051  -0.00001  -0.00703  -0.00293   0.00373
  95        7D 0       -0.00037  -0.00022  -0.00387   0.00053   0.00401
  96        7D+1       -0.00047  -0.00021   0.00174  -0.00582  -0.00176
  97        7D-1        0.00033   0.00028  -0.00143   0.00481   0.00016
  98        7D+2        0.00224  -0.00413   0.00176   0.00035  -0.00209
  99        7D-2        0.00128  -0.00032  -0.00877  -0.00178   0.00311
 100 7   H  1S         -0.05792  -0.04284  -0.05248  -0.04239  -0.04689
 101        2S         -0.07170  -0.05466  -0.06748  -0.06173  -0.06846
 102        3S          0.00474   0.00008  -0.01486  -0.01975  -0.02857
 103        4PX        -0.00286  -0.00121  -0.00474  -0.00188   0.00597
 104        4PY        -0.01041  -0.00734  -0.00529  -0.00664  -0.00612
 105        4PZ        -0.00474  -0.00377  -0.00421   0.00318  -0.00260
 106 8   H  1S         -0.06529  -0.03048  -0.05247  -0.04266   0.08502
 107        2S         -0.08224  -0.03696  -0.06749  -0.06210   0.12022
 108        3S          0.00235   0.00413  -0.01481  -0.01983   0.03474
 109        4PX         0.01069   0.00515   0.00425   0.00619  -0.00722
 110        4PY         0.00457   0.00298   0.00566   0.00316  -0.00308
 111        4PZ        -0.00565  -0.00240  -0.00426   0.00311   0.00744
 112 9   H  1S         -0.06150  -0.03654  -0.05361   0.08014   0.03284
 113        2S         -0.07625  -0.04532  -0.06946   0.11621   0.04550
 114        3S          0.00397   0.00234  -0.01013   0.03468   0.01203
 115        4PX         0.00173   0.00161  -0.00172  -0.00377   0.00531
 116        4PY        -0.00189  -0.00042   0.00145   0.00304   0.00307
 117        4PZ         0.01160   0.00690   0.00864  -0.00816  -0.00433
 118 10  C  1S         -0.07802   0.04372   0.02898   0.00087  -0.00225
 119        2S         -0.12103   0.06783   0.04512   0.00129  -0.00348
 120        2PX        -0.00868  -0.00100   0.08459   0.01542  -0.07021
 121        2PY         0.00433   0.01318   0.03180   0.00569   0.11029
 122        2PZ         0.00023  -0.00013  -0.01136   0.10504   0.00744
 123        3S          0.31887  -0.17869  -0.11830  -0.00243   0.00834
 124        3PX        -0.00599  -0.00475   0.12052   0.02273  -0.09836
 125        3PY         0.00825   0.01694   0.04531   0.00841   0.14971
 126        3PZ         0.00035  -0.00019  -0.01543   0.14600   0.01068
 127        4S          0.17630  -0.09878  -0.10028  -0.00073   0.00620
 128        4PX        -0.01456   0.00573   0.06291   0.01191  -0.06359
 129        4PY        -0.00233   0.00775   0.02363   0.00437   0.09098
 130        4PZ         0.00293  -0.00162  -0.01222   0.09051   0.00723
 131        5S          0.13335  -0.07481  -0.00320  -0.03507   0.02134
 132        5PX         0.02445  -0.01595   0.00153  -0.00827   0.00005
 133        5PY         0.01208  -0.00083   0.00056  -0.00310   0.01421
 134        5PZ        -0.00374   0.00210   0.00032   0.01385   0.00005
 135        6D 0       -0.00043   0.00025  -0.00387   0.00471   0.00130
 136        6D+1       -0.00011   0.00030  -0.00134  -0.00029   0.00237
 137        6D-1       -0.00035  -0.00043  -0.00050  -0.00006  -0.00556
 138        6D+2       -0.00014  -0.00093   0.00539   0.00223   0.00039
 139        6D-2        0.00075   0.00074   0.00472   0.00196  -0.00274
 140        7D 0        0.00037  -0.00020  -0.00387   0.00054   0.00179
 141        7D+1       -0.00057   0.00027  -0.00210   0.00707   0.00106
 142        7D-1       -0.00016   0.00019  -0.00080   0.00268  -0.00099
 143        7D+2       -0.00091  -0.00310   0.00674   0.00135  -0.00239
 144        7D-2        0.00231   0.00283   0.00589   0.00117   0.00040
 145 11  H  1S          0.06606  -0.02879  -0.05246  -0.04265   0.09382
 146        2S          0.08317  -0.03482  -0.06748  -0.06210   0.13359
 147        3S         -0.00246   0.00407  -0.01480  -0.01984   0.04233
 148        4PX         0.00875  -0.00369  -0.00220  -0.00486   0.00860
 149        4PY        -0.00789   0.00429   0.00673   0.00496  -0.00364
 150        4PZ         0.00570  -0.00225  -0.00426   0.00312   0.00759
 151 12  H  1S          0.05902  -0.04134  -0.05246  -0.04216  -0.07711
 152        2S          0.07309  -0.05278  -0.06745  -0.06141  -0.11090
 153        3S         -0.00474  -0.00005  -0.01485  -0.01967  -0.03970
 154        4PX         0.00067  -0.00120   0.00279  -0.00036  -0.00702
 155        4PY         0.01096  -0.00705  -0.00652  -0.00687  -0.00671
 156        4PZ         0.00484  -0.00365  -0.00422   0.00319  -0.00542
 157 13  H  1S          0.06241  -0.03495  -0.05363   0.08023   0.01468
 158        2S          0.07740  -0.04336  -0.06949   0.11638   0.02034
 159        3S         -0.00402   0.00224  -0.01013   0.03471   0.00537
 160        4PX         0.00229  -0.00160   0.00210   0.00454  -0.00351
 161        4PY         0.00124   0.00015   0.00081   0.00166   0.00665
 162        4PZ        -0.01177   0.00660   0.00864  -0.00818  -0.00194
                          11        12        13        14        15
                           O         O         O         O         O
     Eigenvalues --    -0.44289  -0.38869  -0.38864  -0.36980  -0.34800
   1 1   C  1S         -0.00001  -0.00001   0.00000  -0.00001   0.00001
   2        2S         -0.00001  -0.00001   0.00000  -0.00001   0.00001
   3        2PX         0.11097   0.00221  -0.00014  -0.00001   0.10682
   4        2PY         0.00619  -0.00008  -0.00227  -0.00002   0.11199
   5        2PZ        -0.00020   0.00003  -0.00005   0.00000  -0.00001
   6        3S          0.00003   0.00003  -0.00001   0.00003  -0.00005
   7        3PX         0.16390   0.00338  -0.00021  -0.00002   0.15858
   8        3PY         0.00913  -0.00013  -0.00348  -0.00003   0.16625
   9        3PZ        -0.00031   0.00005  -0.00008   0.00000  -0.00001
  10        4S          0.00014   0.00006   0.00001   0.00006  -0.00006
  11        4PX         0.06746  -0.02466   0.00128  -0.00006   0.10730
  12        4PY         0.00379   0.00133   0.02469   0.00000   0.11249
  13        4PZ        -0.00018   0.00001  -0.00003   0.00001  -0.00003
  14        5S          0.00011   0.00009   0.00005   0.00010  -0.00038
  15        5PX         0.01323   0.02233  -0.00117   0.00019  -0.03204
  16        5PY         0.00070  -0.00122  -0.02197  -0.00005  -0.03361
  17        5PZ         0.00003  -0.00001   0.00003   0.00001  -0.00004
  18        6D 0       -0.00000  -0.00000   0.00000   0.00000  -0.00000
  19        6D+1        0.00107  -0.00770   0.00041  -0.00000   0.00211
  20        6D-1        0.00006   0.00041   0.00770  -0.00000   0.00221
  21        6D+2        0.00010  -0.00078   0.00166   0.00000  -0.01510
  22        6D-2        0.00017  -0.00166  -0.00078  -0.00000  -0.00418
  23        7D 0       -0.00001  -0.00000   0.00000   0.00000  -0.00003
  24        7D+1       -0.00003  -0.02476   0.00130  -0.00001   0.00600
  25        7D-1        0.00000   0.00131   0.02471  -0.00000   0.00629
  26        7D+2        0.01092  -0.00241   0.00515   0.00001  -0.02994
  27        7D-2        0.01791  -0.00512  -0.00241  -0.00001  -0.00828
  28 2   C  1S          0.00163  -0.00021   0.00186   0.00001  -0.01315
  29        2S          0.00253  -0.00033   0.00295   0.00001  -0.02113
  30        2PX         0.12595  -0.02129  -0.00549   0.12262  -0.07258
  31        2PY        -0.04063   0.00564  -0.01840  -0.02025  -0.11342
  32        2PZ        -0.00561  -0.01855   0.16656  -0.00001  -0.00449
  33        3S         -0.00605   0.00095  -0.00834  -0.00002   0.06206
  34        3PX         0.17172  -0.03010  -0.00737   0.17023  -0.09598
  35        3PY        -0.05739   0.00770  -0.02370  -0.02811  -0.16184
  36        3PZ        -0.00804  -0.02547   0.22876  -0.00002  -0.00628
  37        4S         -0.00458   0.00281  -0.02527  -0.00006   0.03230
  38        4PX         0.10524  -0.01537  -0.00329   0.12506  -0.07231
  39        4PY        -0.03759   0.00362  -0.00938  -0.02064  -0.10485
  40        4PZ        -0.00542  -0.01726   0.15519  -0.00002  -0.00027
  41        5S         -0.01555  -0.00686   0.06147   0.00001   0.08439
  42        5PX         0.01398  -0.00127  -0.00336   0.02192  -0.01170
  43        5PY         0.00142   0.00241  -0.01925  -0.00363  -0.03016
  44        5PZ        -0.00006  -0.00204   0.01838  -0.00001  -0.00452
  45        6D 0       -0.00090  -0.00107   0.00960   0.00002  -0.00289
  46        6D+1       -0.00607   0.00039   0.00106  -0.00623   0.00324
  47        6D-1        0.00119  -0.00074   0.00590   0.00103   0.00183
  48        6D+2       -0.00030   0.00022  -0.00369   0.00229  -0.00872
  49        6D-2        0.00261  -0.00068   0.00118   0.00678  -0.00282
  50        7D 0       -0.00128  -0.00060   0.00535   0.00001   0.00197
  51        7D+1       -0.00123   0.00039   0.00126  -0.00272  -0.00091
  52        7D-1        0.00070  -0.00090   0.00726   0.00045   0.00258
  53        7D+2       -0.00166  -0.00199  -0.00036   0.00197  -0.00761
  54        7D-2       -0.00145  -0.00590  -0.00061   0.00582  -0.00574
  55 3   H  1S          0.08128  -0.00634  -0.07218   0.09176  -0.07892
  56        2S          0.11672  -0.00523  -0.10420   0.13199  -0.11836
  57        3S          0.04096  -0.00442  -0.04901   0.05716  -0.06591
  58        4PX        -0.00564  -0.00070   0.01099  -0.00678   0.00610
  59        4PY        -0.00800   0.00036   0.00249  -0.00467  -0.00196
  60        4PZ         0.00588  -0.00160   0.00498   0.00652  -0.00521
  61 4   H  1S         -0.09360   0.02205  -0.06879  -0.09185   0.01008
  62        2S         -0.13344   0.02800  -0.10013  -0.13210   0.02007
  63        3S         -0.04298   0.01509  -0.04669  -0.05722   0.00405
  64        4PX        -0.00497   0.00136  -0.00952  -0.00494  -0.00229
  65        4PY         0.00817  -0.00141   0.00569   0.00661  -0.00831
  66        4PZ        -0.00741   0.00047   0.00525  -0.00650   0.00095
  67 5   H  1S         -0.01053  -0.01581   0.14169   0.00010  -0.01916
  68        2S         -0.01459  -0.02349   0.21049   0.00016  -0.03218
  69        3S         -0.00387  -0.00989   0.08851   0.00007  -0.01531
  70        4PX         0.00743  -0.00192  -0.00145   0.00726  -0.00406
  71        4PY        -0.00193   0.00115  -0.00718  -0.00120  -0.00569
  72        4PZ         0.00138   0.00152  -0.01364  -0.00002   0.00309
  73 6   C  1S          0.00553  -0.00151  -0.00111  -0.00001  -0.00119
  74        2S          0.00857  -0.00239  -0.00175  -0.00002  -0.00190
  75        2PX         0.00640   0.00371   0.02002  -0.07889  -0.06831
  76        2PY         0.11211  -0.01988   0.00644  -0.09612  -0.06570
  77        2PZ        -0.01852  -0.13493  -0.09945  -0.00005  -0.00040
  78        3S         -0.02051   0.00677   0.00496   0.00006   0.00559
  79        3PX         0.00372   0.00378   0.02719  -0.10952  -0.08897
  80        3PY         0.15723  -0.02688   0.00996  -0.13344  -0.08357
  81        3PZ        -0.02655  -0.18531  -0.13659  -0.00007  -0.00056
  82        4S         -0.01539   0.02041   0.01505   0.00009   0.00289
  83        4PX        -0.00382   0.00027   0.01255  -0.08041  -0.06900
  84        4PY         0.10175  -0.01230   0.00604  -0.09799  -0.06772
  85        4PZ        -0.01791  -0.12566  -0.09269  -0.00004  -0.00002
  86        5S         -0.05267  -0.05021  -0.03668  -0.00041   0.00763
  87        5PX         0.01560   0.01170   0.00982  -0.01402  -0.00966
  88        5PY        -0.00062  -0.01083  -0.00642  -0.01725  -0.00727
  89        5PZ        -0.00013  -0.01487  -0.01099   0.00001  -0.00040
  90        6D 0       -0.00306  -0.00778  -0.00572  -0.00006  -0.00031
  91        6D+1       -0.00224  -0.00362  -0.00306   0.00401   0.00342
  92        6D-1       -0.00371   0.00325   0.00191   0.00488   0.00383
  93        6D+2        0.00235  -0.00094   0.00001  -0.00703  -0.00939
  94        6D-2       -0.00340   0.00302   0.00236  -0.00136  -0.00251
  95        7D 0       -0.00433  -0.00433  -0.00319  -0.00002   0.00017
  96        7D+1        0.00065  -0.00443  -0.00369   0.00175  -0.00132
  97        7D-1       -0.00173   0.00403   0.00244   0.00213  -0.00195
  98        7D+2       -0.00057  -0.00368   0.00495  -0.00604  -0.01362
  99        7D-2       -0.00394  -0.00061   0.00107  -0.00119  -0.00321
 100 7   H  1S         -0.08153   0.06524   0.03036   0.09204   0.07588
 101        2S         -0.11511   0.09220   0.04718   0.13238   0.11842
 102        3S         -0.03255   0.04439   0.02047   0.05736   0.05932
 103        4PX        -0.00216   0.00256   0.00225  -0.00062  -0.00270
 104        4PY        -0.00726   0.00905   0.00570   0.00826   0.00807
 105        4PZ        -0.00719  -0.00357  -0.00393   0.00648   0.00523
 106 8   H  1S          0.03971   0.04904   0.05376  -0.09165  -0.08179
 107        2S          0.05831   0.07347   0.07474  -0.13184  -0.12680
 108        3S          0.02561   0.03317   0.03660  -0.05710  -0.06462
 109        4PX        -0.00654  -0.00751  -0.00653   0.00815   0.00812
 110        4PY         0.00496  -0.00445  -0.00311   0.00093  -0.00007
 111        4PZ         0.00200  -0.00470  -0.00218  -0.00654  -0.00567
 112 9   H  1S         -0.03541  -0.11481  -0.08453  -0.00040  -0.00202
 113        2S         -0.04908  -0.17056  -0.12556  -0.00061  -0.00334
 114        3S         -0.01299  -0.07175  -0.05279  -0.00027  -0.00159
 115        4PX         0.00154   0.00385   0.00447  -0.00466  -0.00389
 116        4PY         0.00561  -0.00468  -0.00143  -0.00570  -0.00387
 117        4PZ         0.00465   0.01105   0.00813   0.00007   0.00032
 118 10  C  1S         -0.00717   0.00172  -0.00075   0.00001   0.01433
 119        2S         -0.01111   0.00272  -0.00119   0.00001   0.02303
 120        2PX        -0.06620   0.01338  -0.01425  -0.04375  -0.11182
 121        2PY        -0.06773   0.01436   0.01612   0.11648  -0.08579
 122        2PZ         0.02354   0.15358  -0.06725   0.00007   0.00485
 123        3S          0.02657  -0.00771   0.00336  -0.00003  -0.06766
 124        3PX        -0.09831   0.01689  -0.01925  -0.06074  -0.16035
 125        3PY        -0.09548   0.01954   0.02309   0.16170  -0.11655
 126        3PZ         0.03377   0.21092  -0.09237   0.00009   0.00678
 127        4S          0.01990  -0.02324   0.01016  -0.00007  -0.03519
 128        4PX        -0.07010   0.00629  -0.00875  -0.04460  -0.10279
 129        4PY        -0.06236   0.00904   0.01206   0.11873  -0.08335
 130        4PZ         0.02283   0.14307  -0.06269   0.00005   0.00027
 131        5S          0.06814   0.05696  -0.02479   0.00030  -0.09172
 132        5PX         0.01654   0.01669  -0.00787  -0.00775  -0.03044
 133        5PY         0.00178   0.00695  -0.00144   0.02084  -0.01689
 134        5PZ         0.00012   0.01695  -0.00744  -0.00001   0.00494
 135        6D 0        0.00398   0.00885  -0.00386   0.00005   0.00312
 136        6D+1        0.00009  -0.00513   0.00244   0.00223   0.00160
 137        6D-1        0.00206  -0.00207   0.00039  -0.00592   0.00298
 138        6D+2       -0.00417   0.00284  -0.00083   0.00474  -0.00882
 139        6D-2       -0.00269   0.00220  -0.00143  -0.00537  -0.00211
 140        7D 0        0.00563   0.00492  -0.00215   0.00002  -0.00215
 141        7D+1        0.00177  -0.00629   0.00296   0.00098   0.00281
 142        7D-1        0.00111  -0.00258   0.00057  -0.00258  -0.00004
 143        7D+2       -0.00328   0.00175   0.00376   0.00407  -0.00840
 144        7D-2       -0.00365  -0.00180  -0.00437  -0.00463   0.00073
 145 11  H  1S          0.00036  -0.05966   0.04159   0.09173   0.00332
 146        2S         -0.00144  -0.08810   0.05664   0.13195   0.00038
 147        3S         -0.00833  -0.04039   0.02837   0.05715   0.00687
 148        4PX        -0.00455  -0.00667   0.00380   0.00742  -0.00694
 149        4PY        -0.00459   0.00758  -0.00345  -0.00351  -0.00461
 150        4PZ         0.00134   0.00508  -0.00109   0.00654  -0.00005
 151 12  H  1S          0.05396  -0.07039   0.01528  -0.09208   0.07188
 152        2S          0.07522  -0.10042   0.02578  -0.13244   0.10699
 153        3S          0.01736  -0.04784   0.01020  -0.05739   0.06079
 154        4PX        -0.00298  -0.00041  -0.00039  -0.00325  -0.00423
 155        4PY         0.00521  -0.01052   0.00391  -0.00762   0.00488
 156        4PZ         0.00539   0.00434  -0.00303  -0.00650   0.00466
 157 13  H  1S          0.04577   0.13064  -0.05715   0.00032   0.02072
 158        2S          0.06342   0.19408  -0.08489   0.00049   0.03480
 159        3S          0.01677   0.08162  -0.03569   0.00022   0.01655
 160        4PX        -0.00204   0.00606  -0.00344  -0.00258  -0.00557
 161        4PY        -0.00329   0.00311   0.00078   0.00690  -0.00464
 162        4PZ        -0.00603  -0.01257   0.00550  -0.00005  -0.00334
                          16        17        18        19        20
                           O         O         V         V         V
     Eigenvalues --    -0.34800  -0.17517   0.00279   0.03031   0.03032
   1 1   C  1S         -0.00000   0.01157   0.00156   0.00001  -0.00000
   2        2S         -0.00000   0.01900   0.00205   0.00001  -0.00000
   3        2PX         0.11197   0.00002   0.00000   0.00009   0.03333
   4        2PY        -0.10685   0.00000  -0.00000  -0.03331   0.00010
   5        2PZ        -0.00001   0.25544  -0.02289   0.00002  -0.00001
   6        3S          0.00000  -0.05645  -0.00272  -0.00004   0.00000
   7        3PX         0.16622   0.00003   0.00001   0.00008   0.02863
   8        3PY        -0.15862   0.00000  -0.00000  -0.02865   0.00009
   9        3PZ        -0.00001   0.39333  -0.02703   0.00003  -0.00000
  10        4S          0.00002  -0.11498   0.19105  -0.00016   0.00006
  11        4PX         0.11246  -0.00019  -0.00062  -0.00040  -0.15656
  12        4PY        -0.10732  -0.00007  -0.00102   0.15742  -0.00056
  13        4PZ        -0.00000   0.41335  -0.10381  -0.00003  -0.00002
  14        5S          0.00014  -0.29743   5.09194  -0.01318   0.00595
  15        5PX        -0.03356   0.00049  -0.00242   0.00257   1.33218
  16        5PY         0.03208   0.00067  -0.00848  -1.33229   0.00491
  17        5PZ         0.00000   0.23638   0.13726  -0.00040   0.00077
  18        6D 0        0.00000  -0.00384  -0.00390   0.00001  -0.00000
  19        6D+1        0.00221  -0.00000   0.00000   0.00000   0.00038
  20        6D-1       -0.00211  -0.00000   0.00001  -0.00039   0.00000
  21        6D+2        0.00418   0.00000   0.00001   0.00230  -0.00124
  22        6D-2       -0.01510  -0.00000  -0.00000  -0.00124  -0.00230
  23        7D 0        0.00001  -0.01876  -0.02443   0.00000  -0.00000
  24        7D+1        0.00628  -0.00002  -0.00003  -0.00003  -0.01221
  25        7D-1       -0.00599  -0.00003  -0.00003   0.01222  -0.00003
  26        7D+2        0.00830   0.00002  -0.00000  -0.02406   0.01298
  27        7D-2       -0.02994   0.00001   0.00001   0.01297   0.02407
  28 2   C  1S          0.00896  -0.00498  -0.02602  -0.02334   0.00394
  29        2S          0.01439  -0.00792  -0.04276  -0.03847   0.00649
  30        2PX        -0.06325  -0.00213   0.00392   0.00229  -0.03253
  31        2PY         0.09590  -0.01293   0.02372   0.04653  -0.00253
  32        2PZ         0.00308  -0.03630   0.00427   0.00617  -0.00104
  33        3S         -0.04227   0.02201   0.13111   0.12713  -0.02145
  34        3PX        -0.07955  -0.00308   0.00752   0.00388  -0.06156
  35        3PY         0.13422  -0.01865   0.04560   0.08553  -0.00435
  36        3PZ         0.00431  -0.03956   0.00478   0.00296  -0.00051
  37        4S         -0.02201   0.03360   0.28256   0.12014  -0.02047
  38        4PX        -0.06584  -0.00363   0.01293   0.03277  -0.06141
  39        4PY         0.09046  -0.02246   0.07683   0.25385  -0.03348
  40        4PZ         0.00021  -0.02377   0.07394   0.07720  -0.01304
  41        5S         -0.05751   0.07383  -2.64336   2.82816  -0.47738
  42        5PX        -0.00607  -0.00349   0.04855  -0.20434   0.52413
  43        5PY         0.02287  -0.02111   0.29145  -1.73721   0.21210
  44        5PZ         0.00309  -0.08504   0.07515  -0.03941   0.00658
  45        6D 0        0.00195  -0.00812  -0.00038  -0.00001  -0.00000
  46        6D+1        0.00393  -0.00218   0.00036   0.00024   0.00220
  47        6D-1       -0.00226  -0.01306   0.00214  -0.00080  -0.00023
  48        6D+2        0.00216   0.00099  -0.00099   0.00143  -0.00099
  49        6D-2       -0.00923  -0.00033   0.00034  -0.00089  -0.00208
  50        7D 0       -0.00134  -0.00774   0.01220   0.01767  -0.00303
  51        7D+1       -0.00218  -0.00526  -0.00021   0.00140   0.01263
  52        7D-1       -0.00129  -0.03172  -0.00132  -0.00455  -0.00136
  53        7D+2       -0.00028  -0.00238   0.00647   0.02882  -0.01010
  54        7D-2       -0.01215   0.00081  -0.00221  -0.01263  -0.01341
  55 3   H  1S         -0.04185   0.03275   0.00295   0.00781  -0.02101
  56        2S         -0.06807   0.06178  -0.05896  -0.03814   0.02757
  57        3S         -0.03027   0.07046   0.23803   0.10101  -0.25203
  58        4PX         0.00293  -0.00305  -0.00760  -0.00685   0.00270
  59        4PY         0.00848  -0.00198  -0.00121  -0.00362  -0.00037
  60        4PZ        -0.00307  -0.00018   0.00354   0.00267  -0.00074
  61 4   H  1S          0.08887   0.03262   0.00297   0.01426   0.01731
  62        2S          0.13521   0.06157  -0.05890  -0.04501  -0.01356
  63        3S          0.07251   0.07027   0.23847   0.17829   0.20502
  64        4PX         0.00600   0.00225   0.00682   0.00591   0.00078
  65        4PY        -0.00339  -0.00285  -0.00359  -0.00550   0.00136
  66        4PZ         0.00596  -0.00020   0.00352   0.00275  -0.00017
  67 5   H  1S          0.01296  -0.07288   0.01222   0.00569  -0.00098
  68        2S          0.02178  -0.13730  -0.06404  -0.04127   0.00704
  69        3S          0.01036  -0.16110   0.17261  -0.07200   0.01172
  70        4PX        -0.00378   0.00002   0.00035  -0.00033   0.00202
  71        4PY         0.00496   0.00009   0.00218  -0.00395   0.00034
  72        4PZ        -0.00209   0.00512  -0.00710  -0.00710   0.00119
  73 6   C  1S         -0.01587  -0.00498  -0.02602   0.01507   0.01825
  74        2S         -0.02550  -0.00792  -0.04276   0.02485   0.03009
  75        2PX        -0.11096  -0.01012   0.01857  -0.00738  -0.04096
  76        2PY         0.10012   0.00833  -0.01524   0.03810   0.00714
  77        2PZ        -0.00546  -0.03633   0.00427  -0.00398  -0.00483
  78        3S          0.07491   0.02200   0.13115  -0.08216  -0.09944
  79        3PX        -0.15782  -0.01459   0.03569  -0.01262  -0.07595
  80        3PY         0.14117   0.01203  -0.02929   0.07111   0.01224
  81        3PZ        -0.00764  -0.03962   0.00477  -0.00190  -0.00235
  82        4S          0.03896   0.03373   0.28161  -0.07746  -0.09461
  83        4PX        -0.10289  -0.01750   0.06119  -0.10083  -0.17721
  84        4PY         0.09373   0.01454  -0.04932   0.13773   0.09892
  85        4PZ        -0.00039  -0.02373   0.07407  -0.04986  -0.06036
  86        5S          0.10159   0.07556  -2.65987  -1.81673  -2.20124
  87        5PX        -0.02894  -0.01687   0.23233   0.62985   1.25051
  88        5PY         0.02485   0.01386  -0.18865  -1.00639  -0.62490
  89        5PZ        -0.00547  -0.08500   0.07579   0.02477   0.03036
  90        6D 0       -0.00348  -0.00812  -0.00038   0.00002  -0.00000
  91        6D+1        0.00194  -0.01027   0.00168  -0.00072   0.00136
  92        6D-1       -0.00208   0.00836  -0.00137  -0.00164   0.00073
  93        6D+2        0.00244  -0.00020   0.00021   0.00196  -0.00120
  94        6D-2       -0.00856   0.00102  -0.00103  -0.00070  -0.00154
  95        7D 0        0.00239  -0.00772   0.01227  -0.01131  -0.01392
  96        7D+1        0.00235  -0.02487  -0.00102  -0.00417   0.00775
  97        7D-1       -0.00170   0.02038   0.00087  -0.00936   0.00424
  98        7D+2        0.00229   0.00050  -0.00138   0.01622  -0.00535
  99        7D-2       -0.00614  -0.00245   0.00673  -0.01748  -0.02600
 100 7   H  1S         -0.04740   0.03250   0.00297  -0.02212   0.00376
 101        2S         -0.06840   0.06134  -0.05871   0.04290   0.01926
 102        3S         -0.04198   0.06996   0.23809  -0.26960   0.03752
 103        4PX        -0.00705  -0.00019   0.00277  -0.00159   0.00058
 104        4PY        -0.00034   0.00362   0.00721  -0.00575  -0.00564
 105        4PZ        -0.00295  -0.00021   0.00351  -0.00196  -0.00193
 106 8   H  1S         -0.03571   0.03290   0.00292   0.00782  -0.02098
 107        2S         -0.05025   0.06203  -0.05895   0.01085   0.04582
 108        3S         -0.03277   0.07066   0.23742   0.08834  -0.25667
 109        4PX        -0.00228  -0.00360  -0.00651   0.00453   0.00628
 110        4PY         0.00706  -0.00053  -0.00410   0.00001   0.00273
 111        4PZ        -0.00218  -0.00017   0.00355  -0.00155  -0.00232
 112 9   H  1S         -0.02307  -0.07291   0.01223  -0.00361  -0.00450
 113        2S         -0.03876  -0.13739  -0.06412   0.02656   0.03250
 114        3S         -0.01843  -0.16129   0.17264   0.04733   0.05507
 115        4PX        -0.00559   0.00009   0.00170   0.00102   0.00319
 116        4PY         0.00513  -0.00004  -0.00142  -0.00278  -0.00097
 117        4PZ         0.00372   0.00513  -0.00709   0.00459   0.00554
 118 10  C  1S          0.00691  -0.00498  -0.02602   0.00827  -0.02218
 119        2S          0.01111  -0.00793  -0.04277   0.01363  -0.03656
 120        2PX        -0.09074   0.01226  -0.02250   0.00473  -0.04511
 121        2PY         0.05666   0.00462  -0.00845   0.03395  -0.00495
 122        2PZ         0.00238  -0.03633   0.00425  -0.00218   0.00588
 123        3S         -0.03264   0.02202   0.13121  -0.04507   0.12084
 124        3PX        -0.12466   0.01767  -0.04327   0.00806  -0.08305
 125        3PY         0.06985   0.00667  -0.01625   0.06400  -0.00853
 126        3PZ         0.00332  -0.03962   0.00475  -0.00103   0.00286
 127        4S         -0.01696   0.03347   0.28102  -0.04235   0.11452
 128        4PX        -0.08719   0.02111  -0.07410   0.06666  -0.23439
 129        4PY         0.05991   0.00800  -0.02722   0.08064  -0.06678
 130        4PZ         0.00018  -0.02373   0.07407  -0.02735   0.07337
 131        5S         -0.04419   0.07708  -2.66227  -0.99854   2.67328
 132        5PX        -0.01927   0.02083  -0.28075  -0.41649   1.60979
 133        5PY         0.00410   0.00783  -0.10447  -0.64731   0.42339
 134        5PZ         0.00239  -0.08499   0.07585   0.01351  -0.03721
 135        6D 0        0.00155  -0.00812  -0.00038   0.00002  -0.00001
 136        6D+1        0.00278   0.01241  -0.00204   0.00049   0.00095
 137        6D-1       -0.00390   0.00462  -0.00076  -0.00206  -0.00048
 138        6D+2        0.00288  -0.00078   0.00079   0.00187  -0.00064
 139        6D-2       -0.00912  -0.00069   0.00069  -0.00125  -0.00163
 140        7D 0       -0.00104  -0.00772   0.01230  -0.00616   0.01686
 141        7D+1        0.00043   0.03011   0.00124   0.00285   0.00533
 142        7D-1        0.00243   0.01130   0.00047  -0.01177  -0.00281
 143        7D+2        0.00619   0.00187  -0.00519   0.01841  -0.01867
 144        7D-2       -0.01135   0.00161  -0.00453  -0.00407  -0.02387
 145 11  H  1S          0.08915   0.03286   0.00294   0.01427   0.01726
 146        2S          0.13635   0.06195  -0.05896  -0.00477  -0.04684
 147        3S          0.07212   0.07056   0.23759   0.16748   0.21383
 148        4PX         0.00556   0.00323   0.00484  -0.00239   0.00619
 149        4PY        -0.00455  -0.00166  -0.00598  -0.00012  -0.00483
 150        4PZ         0.00606  -0.00017   0.00354  -0.00070   0.00270
 151 12  H  1S         -0.05320   0.03255   0.00296  -0.02213   0.00369
 152        2S         -0.08506   0.06144  -0.05868   0.03422  -0.03219
 153        3S         -0.03977   0.06997   0.23787  -0.26688   0.05270
[...]
     2. BD (   1) C   1 - C   6    83.5  320.6    86.8  320.6   3.4      --     --    --
     3. BD (   1) C   1 - C  10    83.5  200.6    86.8  200.6   3.4      --     --    --
     6. BD (   1) C   2 - H   5    15.3   80.4    13.4   80.4   1.9      --     --    --
     9. BD (   1) C   6 - H   9    15.3  321.3    13.4  321.4   1.9      --     --    --
    12. BD (   1) C  10 - H  13    15.3  200.1    13.4  200.0   1.9      --     --    --
    17. LP*(   1) C   1             --     --    180.0    0.0   --       --     --    --


 Second Order Perturbation Theory Analysis of Fock Matrix in NBO Basis

     Threshold for printing:   0.25 kcal/mol
                                                                              E(2)  E(j)-E(i) F(i,j)
         Donor NBO (i)                     Acceptor NBO (j)                 kcal/mol   a.u.    a.u. 
 ===================================================================================================

 within unit  1
   1. BD (   1) C   1 - C   2        / 77. RY*(   1) C   6                    0.50    1.32    0.033
   1. BD (   1) C   1 - C   2        /114. RY*(   1) C  10                    0.50    1.32    0.033
   1. BD (   1) C   1 - C   2        /152. BD*(   1) C   1 - C   6            0.30    1.08    0.023
   1. BD (   1) C   1 - C   2        /153. BD*(   1) C   1 - C  10            0.30    1.08    0.023
   1. BD (   1) C   1 - C   2        /154. BD*(   1) C   2 - H   3            0.31    1.02    0.023
   1. BD (   1) C   1 - C   2        /155. BD*(   1) C   2 - H   4            0.31    1.02    0.023
   1. BD (   1) C   1 - C   2        /156. BD*(   1) C   2 - H   5            0.30    1.01    0.022
   1. BD (   1) C   1 - C   2        /157. BD*(   1) C   6 - H   7            0.64    1.02    0.032
   1. BD (   1) C   1 - C   2        /161. BD*(   1) C  10 - H  12            0.64    1.02    0.032
   2. BD (   1) C   1 - C   6        / 40. RY*(   1) C   2                    0.50    1.32    0.033
   2. BD (   1) C   1 - C   6        /114. RY*(   1) C  10                    0.50    1.32    0.033
   2. BD (   1) C   1 - C   6        /151. BD*(   1) C   1 - C   2            0.30    1.08    0.023
   2. BD (   1) C   1 - C   6        /153. BD*(   1) C   1 - C  10            0.30    1.08    0.023
   2. BD (   1) C   1 - C   6        /155. BD*(   1) C   2 - H   4            0.64    1.02    0.032
   2. BD (   1) C   1 - C   6        /157. BD*(   1) C   6 - H   7            0.31    1.02    0.023
   2. BD (   1) C   1 - C   6        /158. BD*(   1) C   6 - H   8            0.31    1.02    0.023
   2. BD (   1) C   1 - C   6        /159. BD*(   1) C   6 - H   9            0.30    1.01    0.022
   2. BD (   1) C   1 - C   6        /160. BD*(   1) C  10 - H  11            0.64    1.02    0.032
   3. BD (   1) C   1 - C  10        / 40. RY*(   1) C   2                    0.50    1.32    0.033
   3. BD (   1) C   1 - C  10        / 77. RY*(   1) C   6                    0.50    1.32    0.033
   3. BD (   1) C   1 - C  10        /151. BD*(   1) C   1 - C   2            0.30    1.08    0.023
   3. BD (   1) C   1 - C  10        /152. BD*(   1) C   1 - C   6            0.30    1.08    0.023
   3. BD (   1) C   1 - C  10        /154. BD*(   1) C   2 - H   3            0.64    1.02    0.032
   3. BD (   1) C   1 - C  10        /158. BD*(   1) C   6 - H   8            0.64    1.02    0.032
   3. BD (   1) C   1 - C  10        /160. BD*(   1) C  10 - H  11            0.31    1.02    0.023
   3. BD (   1) C   1 - C  10        /161. BD*(   1) C  10 - H  12            0.31    1.02    0.023
   3. BD (   1) C   1 - C  10        /162. BD*(   1) C  10 - H  13            0.30    1.01    0.022
   4. BD (   1) C   2 - H   3        / 17. LP*(   1) C   1                    0.78    0.50    0.026
   4. BD (   1) C   2 - H   3        /153. BD*(   1) C   1 - C  10            1.99    0.95    0.055
   5. BD (   1) C   2 - H   4        / 17. LP*(   1) C   1                    0.77    0.50    0.026
   5. BD (   1) C   2 - H   4        / 19. RY*(   2) C   1                    0.34    1.64    0.030
   5. BD (   1) C   2 - H   4        /152. BD*(   1) C   1 - C   6            1.99    0.95    0.055
   6. BD (   1) C   2 - H   5        / 17. LP*(   1) C   1                    6.48    0.49    0.074
   7. BD (   1) C   6 - H   7        / 17. LP*(   1) C   1                    0.76    0.50    0.026
   7. BD (   1) C   6 - H   7        / 19. RY*(   2) C   1                    0.40    1.64    0.033
   7. BD (   1) C   6 - H   7        /151. BD*(   1) C   1 - C   2            2.00    0.95    0.055
   8. BD (   1) C   6 - H   8        / 17. LP*(   1) C   1                    0.79    0.50    0.026
   8. BD (   1) C   6 - H   8        / 18. RY*(   1) C   1                    0.44    1.64    0.034
   8. BD (   1) C   6 - H   8        /153. BD*(   1) C   1 - C  10            1.99    0.95    0.055
   9. BD (   1) C   6 - H   9        / 17. LP*(   1) C   1                    6.48    0.49    0.074
  10. BD (   1) C  10 - H  11        / 17. LP*(   1) C   1                    0.79    0.50    0.026
  10. BD (   1) C  10 - H  11        / 18. RY*(   1) C   1                    0.42    1.64    0.033
  10. BD (   1) C  10 - H  11        /152. BD*(   1) C   1 - C   6            1.99    0.95    0.055
  11. BD (   1) C  10 - H  12        / 17. LP*(   1) C   1                    0.77    0.50    0.026
  11. BD (   1) C  10 - H  12        / 19. RY*(   2) C   1                    0.32    1.64    0.029
  11. BD (   1) C  10 - H  12        /151. BD*(   1) C   1 - C   2            2.00    0.95    0.055
  12. BD (   1) C  10 - H  13        / 17. LP*(   1) C   1                    6.48    0.49    0.074
  13. CR (   1) C   1                / 17. LP*(   1) C   1                    0.35   10.04    0.080
  13. CR (   1) C   1                / 43. RY*(   4) C   2                    0.36   11.58    0.082
  13. CR (   1) C   1                / 80. RY*(   4) C   6                    0.36   11.58    0.082
  13. CR (   1) C   1                /117. RY*(   4) C  10                    0.36   11.58    0.082
  14. CR (   1) C   2                / 18. RY*(   1) C   1                    0.80   11.16    0.119
  15. CR (   1) C   6                / 18. RY*(   1) C   1                    0.29   11.16    0.072
  15. CR (   1) C   6                / 19. RY*(   2) C   1                    0.51   11.16    0.096
  16. CR (   1) C  10                / 19. RY*(   2) C   1                    0.69   11.16    0.110
  17. LP*(   1) C   1                / 37. RY*(  20) C   1                    1.24    0.47    0.093
  17. LP*(   1) C   1                /156. BD*(   1) C   2 - H   5            0.90    0.38    0.072
  17. LP*(   1) C   1                /159. BD*(   1) C   6 - H   9            0.90    0.38    0.072
  17. LP*(   1) C   1                /162. BD*(   1) C  10 - H  13            0.90    0.38    0.072


 Natural Bond Orbitals (Summary):

                                                            Principal Delocalizations
           NBO                        Occupancy    Energy   (geminal,vicinal,remote)
 ====================================================================================
 Molecular unit  1  (C4H9)
     1. BD (   1) C   1 - C   2          0.99322    -0.61899  157(v),161(v),77(v),114(v)
                                                    154(g),155(g),156(g),152(g)
                                                    153(g)
     2. BD (   1) C   1 - C   6          0.99323    -0.61897  155(v),160(v),40(v),114(v)
                                                    158(g),157(g),151(g),153(g)
                                                    159(g)
     3. BD (   1) C   1 - C  10          0.99323    -0.61894  154(v),158(v),40(v),77(v)
                                                    160(g),161(g),151(g),152(g)
                                                    162(g)
     4. BD (   1) C   2 - H   3          0.99032    -0.49088  153(v),17(v)
     5. BD (   1) C   2 - H   4          0.99036    -0.49090  152(v),17(v),19(v)
     6. BD (   1) C   2 - H   5          0.97207    -0.48346  17(v)
     7. BD (   1) C   6 - H   7          0.99039    -0.49093  151(v),17(v),19(v)
     8. BD (   1) C   6 - H   8          0.99029    -0.49086  153(v),17(v),18(v)
     9. BD (   1) C   6 - H   9          0.97206    -0.48345  17(v)
    10. BD (   1) C  10 - H  11          0.99030    -0.49087  152(v),17(v),18(v)
    11. BD (   1) C  10 - H  12          0.99038    -0.49090  151(v),17(v),19(v)
    12. BD (   1) C  10 - H  13          0.97208    -0.48346  17(v)
    13. CR (   1) C   1                  0.99961   -10.03708  17(g),43(v),80(v),117(v)
    14. CR (   1) C   2                  0.99964   -10.01496  18(v)
    15. CR (   1) C   6                  0.99964   -10.01496  19(v),18(v)
    16. CR (   1) C  10                  0.99964   -10.01498  19(v)
    17. LP*(   1) C   1                  0.10627     0.00707  37(g),156(v),162(v),159(v)
    18. RY*(   1) C   1                  0.00101     1.14569   
    19. RY*(   2) C   1                  0.00101     1.14730   
    20. RY*(   3) C   1                  0.00053     1.95494   
    21. RY*(   4) C   1                  0.00053     1.95161   
    22. RY*(   5) C   1                  0.00019     1.45326   
    23. RY*(   6) C   1                  0.00016     3.08080   
    24. RY*(   7) C   1                  0.00016     3.07892   
    25. RY*(   8) C   1                  0.00008     0.85734   
    26. RY*(   9) C   1                  0.00003     2.56168   
    27. RY*(  10) C   1                  0.00003     2.56127   
    28. RY*(  11) C   1                  0.00000     0.66363   
    29. RY*(  12) C   1                  0.00000     2.56404   
    30. RY*(  13) C   1                  0.00000     1.63086   
    31. RY*(  14) C   1                  0.00000     2.49583   
    32. RY*(  15) C   1                  0.00000     1.65291   
    33. RY*(  16) C   1                  0.00000     2.49865   
    34. RY*(  17) C   1                  0.00000     1.64567   
    35. RY*(  18) C   1                  0.00000    22.57023   
    36. RY*(  19) C   1                  0.00000     1.63605   
    37. RY*(  20) C   1                  0.00000     0.47516   
    38. RY*(  21) C   1                  0.00001     1.12869   
    39. RY*(  22) C   1                  0.00000     3.51869   
    40. RY*(   1) C   2                  0.00158     0.70392   
    41. RY*(   2) C   2                  0.00033     0.89211   
    42. RY*(   3) C   2                  0.00017     1.02903   
    43. RY*(   4) C   2                  0.00015     1.54680   
    44. RY*(   5) C   2                  0.00008     0.91346   
    45. RY*(   6) C   2                  0.00003     0.97589   
    46. RY*(   7) C   2                  0.00003     1.16506   
    47. RY*(   8) C   2                  0.00003     0.45483   
    48. RY*(   9) C   2                  0.00003     1.35868   
    49. RY*(  10) C   2                  0.00000    23.21723   
    50. RY*(  11) C   2                  0.00000     0.26025   
    51. RY*(  12) C   2                  0.00000     3.02757   
    52. RY*(  13) C   2                  0.00000     3.16232   
    53. RY*(  14) C   2                  0.00000     3.43437   
    54. RY*(  15) C   2                  0.00000     0.68425   
    55. RY*(  16) C   2                  0.00000     3.50410   
    56. RY*(  17) C   2                  0.00000     0.41369   
    57. RY*(  18) C   2                  0.00000     3.12889   
    58. RY*(  19) C   2                  0.00000     2.19849   
    59. RY*(  20) C   2                  0.00000     3.47613   
    60. RY*(  21) C   2                  0.00000     1.77238   
    61. RY*(  22) C   2                  0.00000     2.99963   
    62. RY*(   1) H   3                  0.00028     0.92653   
    63. RY*(   2) H   3                  0.00006     2.06066   
    64. RY*(   3) H   3                  0.00005     1.97689   
    65. RY*(   4) H   3                  0.00003     2.46928   
    66. RY*(   5) H   3                  0.00001     2.27264   
    67. RY*(   1) H   4                  0.00028     0.92631   
    68. RY*(   2) H   4                  0.00006     2.06657   
    69. RY*(   3) H   4                  0.00005     1.97098   
    70. RY*(   4) H   4                  0.00003     2.46881   
    71. RY*(   5) H   4                  0.00001     2.27326   
    72. RY*(   1) H   5                  0.00016     1.21679   
    73. RY*(   2) H   5                  0.00008     1.92740   
    74. RY*(   3) H   5                  0.00005     1.95790   
    75. RY*(   4) H   5                  0.00003     2.35745   
    76. RY*(   5) H   5                  0.00000     2.15858   
    77. RY*(   1) C   6                  0.00158     0.70394   
    78. RY*(   2) C   6                  0.00033     0.89265   
    79. RY*(   3) C   6                  0.00017     1.02893   
    80. RY*(   4) C   6                  0.00015     1.54631   
    81. RY*(   5) C   6                  0.00008     0.91406   
    82. RY*(   6) C   6                  0.00004     1.41026   
    83. RY*(   7) C   6                  0.00003     1.00170   
    84. RY*(   8) C   6                  0.00003     1.09567   
    85. RY*(   9) C   6                  0.00003     0.44447   
    86. RY*(  10) C   6                  0.00000     0.64134   
    87. RY*(  11) C   6                  0.00000     0.26997   
    88. RY*(  12) C   6                  0.00000     3.02185   
    89. RY*(  13) C   6                  0.00000     2.49812   
    90. RY*(  14) C   6                  0.00000     3.51452   
    91. RY*(  15) C   6                  0.00000    23.21473   
    92. RY*(  16) C   6                  0.00000     3.21299   
    93. RY*(  17) C   6                  0.00000     1.33286   
    94. RY*(  18) C   6                  0.00000     3.34592   
    95. RY*(  19) C   6                  0.00000     2.85165   
    96. RY*(  20) C   6                  0.00000     3.32743   
    97. RY*(  21) C   6                  0.00000     1.08657   
    98. RY*(  22) C   6                  0.00000     2.96298   
    99. RY*(   1) H   7                  0.00028     0.92563   
   100. RY*(   2) H   7                  0.00006     2.06019   
   101. RY*(   3) H   7                  0.00005     1.97753   
   102. RY*(   4) H   7                  0.00003     2.46914   
   103. RY*(   5) H   7                  0.00001     2.27348   
   104. RY*(   1) H   8                  0.00028     0.92712   
   105. RY*(   2) H   8                  0.00006     2.06278   
   106. RY*(   3) H   8                  0.00005     1.97465   
   107. RY*(   4) H   8                  0.00003     2.46866   
   108. RY*(   5) H   8                  0.00001     2.27269   
   109. RY*(   1) H   9                  0.00016     1.21670   
   110. RY*(   2) H   9                  0.00008     1.92751   
   111. RY*(   3) H   9                  0.00005     1.95792   
   112. RY*(   4) H   9                  0.00003     2.35729   
   113. RY*(   5) H   9                  0.00000     2.15891   
   114. RY*(   1) C  10                  0.00158     0.70383   
   115. RY*(   2) C  10                  0.00033     0.89256   
   116. RY*(   3) C  10                  0.00017     1.02873   
   117. RY*(   4) C  10                  0.00015     1.54613   
   118. RY*(   5) C  10                  0.00008     0.91449   
   119. RY*(   6) C  10                  0.00003     0.50566   
   120. RY*(   7) C  10                  0.00003     1.00882   
   121. RY*(   8) C  10                  0.00003     1.16318   
   122. RY*(   9) C  10                  0.00003     1.27305   
   123. RY*(  10) C  10                  0.00000     0.34730   
   124. RY*(  11) C  10                  0.00000     0.23426   
   125. RY*(  12) C  10                  0.00000     2.99611   
   126. RY*(  13) C  10                  0.00000     2.28593   
   127. RY*(  14) C  10                  0.00000     3.45444   
   128. RY*(  15) C  10                  0.00000    23.22201   
   129. RY*(  16) C  10                  0.00000     3.16086   
   130. RY*(  17) C  10                  0.00000     0.68458   
   131. RY*(  18) C  10                  0.00000     3.46847   
   132. RY*(  19) C  10                  0.00000     3.06446   
   133. RY*(  20) C  10                  0.00000     3.48761   
   134. RY*(  21) C  10                  0.00000     1.80100   
   135. RY*(  22) C  10                  0.00000     3.07528   
   136. RY*(   1) H  11                  0.00028     0.92688   
   137. RY*(   2) H  11                  0.00006     2.05722   
   138. RY*(   3) H  11                  0.00005     1.98032   
   139. RY*(   4) H  11                  0.00003     2.46859   
   140. RY*(   5) H  11                  0.00001     2.27277   
   141. RY*(   1) H  12                  0.00028     0.92597   
   142. RY*(   2) H  12                  0.00006     2.05965   
   143. RY*(   3) H  12                  0.00005     1.97778   
   144. RY*(   4) H  12                  0.00003     2.46888   
   145. RY*(   5) H  12                  0.00001     2.27347   
   146. RY*(   1) H  13                  0.00016     1.21635   
   147. RY*(   2) H  13                  0.00008     1.92779   
   148. RY*(   3) H  13                  0.00005     1.95794   
   149. RY*(   4) H  13                  0.00003     2.35769   
   150. RY*(   5) H  13                  0.00000     2.15865   
   151. BD*(   1) C   1 - C   2          0.00800     0.45744   
   152. BD*(   1) C   1 - C   6          0.00800     0.45740   
   153. BD*(   1) C   1 - C  10          0.00800     0.45735   
   154. BD*(   1) C   2 - H   3          0.00264     0.40381   
   155. BD*(   1) C   2 - H   4          0.00264     0.40387   
   156. BD*(   1) C   2 - H   5          0.00095     0.39184   
   157. BD*(   1) C   6 - H   7          0.00264     0.40392   
   158. BD*(   1) C   6 - H   8          0.00263     0.40385   
   159. BD*(   1) C   6 - H   9          0.00095     0.39184   
   160. BD*(   1) C  10 - H  11          0.00263     0.40384   
   161. BD*(   1) C  10 - H  12          0.00264     0.40389   
   162. BD*(   1) C  10 - H  13          0.00095     0.39183   
       -------------------------------
              Total Lewis   15.83644  ( 98.9778%)
        Valence non-Lewis    0.14895  (  0.9310%)
        Rydberg non-Lewis    0.01460  (  0.0913%)
       -------------------------------
            Total unit  1   16.00000  (100.0000%)
           Charge unit  1    0.50000
 Leave Link  607 at Wed Sep  5 16:56:55 2018, MaxMem=   805306368 cpu:               5.0 elap:               0.6
 (Enter /home/g16/l9999.exe)
 1\1\GINC-PC2\Stability\UB3LYP\6-311+G(2d,p)\C4H9(2)\MASKER\05-Sep-2018
 \0\\#p b3lyp/6-311+g(2d,p) pop=(full,nboread) stable=opt g09def\\tBu-c
 1-1sp 1\\0,2\C,0,-0.000024,-0.000082,-0.154388\C,0,0.242257,1.46308,0.
 015217\H,0,1.191145,1.772606,-0.432226\H,0,-0.55747,2.061588,-0.430326
 \H,0,0.290896,1.749943,1.080584\C,0,1.146189,-0.941315,0.015159\H,0,0.
 938205,-1.919161,-0.428467\H,0,2.063304,-0.549819,-0.434259\H,0,1.3733
 47,-1.123265,1.080505\C,0,-1.388445,-0.521778,0.015144\H,0,-2.130536,0
 .144657,-0.433756\H,0,-1.506571,-1.514156,-0.42926\H,0,-1.66218,-0.621
 825,1.080408\\Version=ES64L-G16RevA.03\State=2-A\HF=-157.8490587\S2=0.
 75412\S2-1=0.\S2A=0.750013\RMSD=3.875e-09\Dipole=-0.000013,0.0000145,0
 .0870019\Quadrupole=0.185614,0.1857127,-0.3713267,0.0001439,-0.000363,
 -0.0005777\PG=C01 [X(C4H9)]\\@


 This summer one third of the nation will be ill-housed
 ill-nourished and ill-clad. Only they call it a vacation.
 -- Jonas Salk
 Job cpu time:       0 days  0 hours  6 minutes 33.1 seconds.
 Elapsed time:       0 days  0 hours  0 minutes 49.1 seconds.
 File lengths (MBytes):  RWF=    130 Int=      0 D2E=      0 Chk=      5 Scr=      1
 Normal termination of Gaussian 16 at Wed Sep  5 16:56:55 2018.
