 Entering Gaussian System, Link 0=g16
 Input=TF3-c1-1sp.gjf
 Output=TF3-c1-1sp.log
 Initial command:
 /home/g16/l1.exe "/home/masker/scratch/Gau-32538.inp" -scrdir="/home/masker/scratch/"
 Entering Link 1 = /home/g16/l1.exe PID=     32539.
  
 Copyright (c) 1988,1990,1992,1993,1995,1998,2003,2009,2016,
            Gaussian, Inc.  All Rights Reserved.
  
 This is part of the Gaussian(R) 16 program.  It is based on
 the Gaussian(R) 09 system (copyright 2009, Gaussian, Inc.),
 the Gaussian(R) 03 system (copyright 2003, Gaussian, Inc.),
 the Gaussian(R) 98 system (copyright 1998, Gaussian, Inc.),
 the Gaussian(R) 94 system (copyright 1995, Gaussian, Inc.),
 the Gaussian 92(TM) system (copyright 1992, Gaussian, Inc.),
 the Gaussian 90(TM) system (copyright 1990, Gaussian, Inc.),
 the Gaussian 88(TM) system (copyright 1988, Gaussian, Inc.),
 the Gaussian 86(TM) system (copyright 1986, Carnegie Mellon
 University), and the Gaussian 82(TM) system (copyright 1983,
 Carnegie Mellon University). Gaussian is a federally registered
 trademark of Gaussian, Inc.
  
 This software contains proprietary and confidential information,
 including trade secrets, belonging to Gaussian, Inc.
  
 This software is provided under written license and may be
 used, copied, transmitted, or stored only in accord with that
 written license.
  
 The following legend is applicable only to US Government
 contracts under FAR:
  
                    RESTRICTED RIGHTS LEGEND
  
 Use, reproduction and disclosure by the US Government is
 subject to restrictions as set forth in subparagraphs (a)
 and (c) of the Commercial Computer Software - Restricted
 Rights clause in FAR 52.227-19.
  
 Gaussian, Inc.
 340 Quinnipiac St., Bldg. 40, Wallingford CT 06492
  
  
 ---------------------------------------------------------------
 Warning -- This program may not be used in any manner that
 competes with the business of Gaussian, Inc. or will provide
 assistance to any competitor of Gaussian, Inc.  The licensee
 of this program is prohibited from giving any competitor of
 Gaussian, Inc. access to this program.  By using this program,
 the user acknowledges that Gaussian, Inc. is engaged in the
 business of creating and licensing software in the field of
 computational chemistry and represents and warrants to the
 licensee that it is not a competitor of Gaussian, Inc. and that
 it will not use this program in any manner prohibited above.
 ---------------------------------------------------------------
  

 Cite this work as:
 Gaussian 16, Revision A.03,
 M. J. Frisch, G. W. Trucks, H. B. Schlegel, G. E. Scuseria, 
 M. A. Robb, J. R. Cheeseman, G. Scalmani, V. Barone, 
 G. A. Petersson, H. Nakatsuji, X. Li, M. Caricato, A. V. Marenich, 
 J. Bloino, B. G. Janesko, R. Gomperts, B. Mennucci, H. P. Hratchian, 
 J. V. Ortiz, A. F. Izmaylov, J. L. Sonnenberg, D. Williams-Young, 
 F. Ding, F. Lipparini, F. Egidi, J. Goings, B. Peng, A. Petrone, 
 T. Henderson, D. Ranasinghe, V. G. Zakrzewski, J. Gao, N. Rega, 
 G. Zheng, W. Liang, M. Hada, M. Ehara, K. Toyota, R. Fukuda, 
 J. Hasegawa, M. Ishida, T. Nakajima, Y. Honda, O. Kitao, H. Nakai, 
 T. Vreven, K. Throssell, J. A. Montgomery, Jr., J. E. Peralta, 
 F. Ogliaro, M. J. Bearpark, J. J. Heyd, E. N. Brothers, K. N. Kudin, 
 V. N. Staroverov, T. A. Keith, R. Kobayashi, J. Normand, 
 K. Raghavachari, A. P. Rendell, J. C. Burant, S. S. Iyengar, 
 J. Tomasi, M. Cossi, J. M. Millam, M. Klene, C. Adamo, R. Cammi, 
 J. W. Ochterski, R. L. Martin, K. Morokuma, O. Farkas, 
 J. B. Foresman, and D. J. Fox, Gaussian, Inc., Wallingford CT, 2016.
 
 ******************************************
 Gaussian 16:  ES64L-G16RevA.03 25-Dec-2016
                 5-Sep-2018 
 ******************************************
 %nprocshared=8
 Will use up to    8 processors via shared memory.
 %mem=6GB
 %chk=TF3-c1-1sp.chk
 -----------------------------------------------------------
 #p b3lyp/6-311+g(2d,p) pop=(full,nboread) stable=opt g09def
 -----------------------------------------------------------
 1/38=1,158=3,167=1,172=1/1;
 2/12=2,17=6,18=5,40=1/2;
 3/5=4,6=6,7=112,11=2,25=1,27=10,30=1,74=-5,75=-4,158=3/1,2,3;
 4/60=-1/1;
 5/5=2,38=5,87=10/2;
 6/7=3,28=1,40=2,87=10/1,7;
 8/6=1,10=90,11=11,87=10/1;
 9/8=-3,42=1,46=1,87=10/14;
 5/5=2,8=3,17=40,38=5,87=10/8(-2);
 6/7=3,28=1,40=2,87=10/1,7;
 99/5=1,9=1/99;
 Using 2006 physical constants.
 Leave Link    1 at Wed Sep  5 17:04:17 2018, MaxMem=   805306368 cpu:               0.3 elap:               0.0
 (Enter /home/g16/l101.exe)
 ------------
 TF3-c1-1sp 1
 ------------
 Symbolic Z-matrix:
 Charge =  0 Multiplicity = 2
 C                     2.11768  -0.06248   0.00002 
 H                     2.53361  -0.4266   -0.92848 
 H                     2.53493  -0.42237   0.92958 
 C                     0.90316   0.79638  -0.00111 
 H                     0.86632   1.43754  -0.88558 
 H                     0.86639   1.44001   0.88155 
 C                    -0.40127   0.01108  0. 
 F                    -1.46759   0.84154  -0.0015 
 F                    -0.5171   -0.78357  -1.08464 
 F                    -0.51739  -0.78002   1.08719 
 
 ITRead=  0  0  0  0  0  0  0  0  0  0
 MicOpt= -1 -1 -1 -1 -1 -1 -1 -1 -1 -1
 NAtoms=     10 NQM=       10 NQMF=       0 NMMI=      0 NMMIF=      0
                NMic=       0 NMicF=      0.
                    Isotopes and Nuclear Properties:
 (Nuclear quadrupole moments (NQMom) in fm**2, nuclear magnetic moments (NMagM)
  in nuclear magnetons)

  Atom         1           2           3           4           5           6           7           8           9          10
 IAtWgt=          12           1           1          12           1           1          12          19          19          19
 AtmWgt=  12.0000000   1.0078250   1.0078250  12.0000000   1.0078250   1.0078250  12.0000000  18.9984032  18.9984032  18.9984032
 NucSpn=           0           1           1           0           1           1           0           1           1           1
 AtZEff=  -0.0000000  -0.0000000  -0.0000000  -0.0000000  -0.0000000  -0.0000000  -0.0000000  -0.0000000  -0.0000000  -0.0000000
 NQMom=    0.0000000   0.0000000   0.0000000   0.0000000   0.0000000   0.0000000   0.0000000   0.0000000   0.0000000   0.0000000
 NMagM=    0.0000000   2.7928460   2.7928460   0.0000000   2.7928460   2.7928460   0.0000000   2.6288670   2.6288670   2.6288670
 AtZNuc=   6.0000000   1.0000000   1.0000000   6.0000000   1.0000000   1.0000000   6.0000000   9.0000000   9.0000000   9.0000000
 Leave Link  101 at Wed Sep  5 17:04:17 2018, MaxMem=   805306368 cpu:               0.3 elap:               0.0
 (Enter /home/g16/l202.exe)
                          Input orientation:                          
 ---------------------------------------------------------------------
 Center     Atomic      Atomic             Coordinates (Angstroms)
 Number     Number       Type             X           Y           Z
 ---------------------------------------------------------------------
      1          6           0        2.117678   -0.062481    0.000023
      2          1           0        2.533607   -0.426603   -0.928483
      3          1           0        2.534933   -0.422373    0.929579
      4          6           0        0.903161    0.796381   -0.001109
      5          1           0        0.866321    1.437535   -0.885581
      6          1           0        0.866393    1.440011    0.881545
      7          6           0       -0.401271    0.011084   -0.000002
      8          9           0       -1.467586    0.841536   -0.001498
      9          9           0       -0.517102   -0.783572   -1.084644
     10          9           0       -0.517386   -0.780017    1.087193
 ---------------------------------------------------------------------
                    Distance matrix (angstroms):
                    1          2          3          4          5
     1  C    0.000000
     2  H    1.080604   0.000000
     3  H    1.080601   1.858067   0.000000
     4  C    1.487514   2.239211   2.239246   0.000000
     5  H    2.144816   2.501338   3.088419   1.093035   0.000000
     6  H    2.144826   3.088697   2.500961   1.093019   1.767128
     7  C    2.520023   3.109205   3.110193   1.522575   2.103759
     8  F    3.697481   4.298491   4.299364   2.371177   2.565919
     9  F    2.939139   3.075490   3.674572   2.384837   2.624272
    10  F    2.939449   3.673746   3.077239   2.384824   3.274755
                    6          7          8          9         10
     6  H    0.000000
     7  C    2.103789   0.000000
     8  F    2.566202   1.351547   0.000000
     9  F    3.274794   1.349572   2.172004   0.000000
    10  F    2.624054   1.349562   2.171995   2.171840   0.000000
 Stoichiometry    C3H4F3(2)
 Framework group  C1[X(C3H4F3)]
 Deg. of freedom    24
 Full point group                 C1      NOp   1
 Largest Abelian subgroup         C1      NOp   1
 Largest concise Abelian subgroup C1      NOp   1
                         Standard orientation:                         
 ---------------------------------------------------------------------
 Center     Atomic      Atomic             Coordinates (Angstroms)
 Number     Number       Type             X           Y           Z
 ---------------------------------------------------------------------
      1          6           0        2.117678   -0.062481    0.000023
      2          1           0        2.533607   -0.426603   -0.928483
      3          1           0        2.534933   -0.422373    0.929579
      4          6           0        0.903161    0.796381   -0.001109
      5          1           0        0.866321    1.437535   -0.885581
      6          1           0        0.866393    1.440011    0.881545
      7          6           0       -0.401271    0.011084   -0.000002
      8          9           0       -1.467586    0.841536   -0.001498
      9          9           0       -0.517102   -0.783572   -1.084644
     10          9           0       -0.517386   -0.780017    1.087193
 ---------------------------------------------------------------------
 Rotational constants (GHZ):           5.2153078           2.8339506           2.8234526
 Leave Link  202 at Wed Sep  5 17:04:17 2018, MaxMem=   805306368 cpu:               0.0 elap:               0.0
 (Enter /home/g16/l301.exe)
 Standard basis: 6-311+G(2d,p) (5D, 7F)
 Ernie: Thresh=  0.10000D-02 Tol=  0.10000D-05 Strict=F.
 There are   198 symmetry adapted cartesian basis functions of A   symmetry.
 There are   186 symmetry adapted basis functions of A   symmetry.
   186 basis functions,   284 primitive gaussians,   198 cartesian basis functions
    25 alpha electrons       24 beta electrons
       nuclear repulsion energy       260.8100318955 Hartrees.
 IExCor=  402 DFT=T Ex+Corr=B3LYP ExCW=0 ScaHFX=  0.200000
 ScaDFX=  0.800000  0.720000  1.000000  0.810000 ScalE2=  1.000000  1.000000
 IRadAn=      4 IRanWt=     -1 IRanGd=            0 ICorTp=0 IEmpDi=  4
 NAtoms=   10 NActive=   10 NUniq=   10 SFac= 1.00D+00 NAtFMM=   60 NAOKFM=F Big=F
 Integral buffers will be    131072 words long.
 Raffenetti 2 integral format.
 Two-electron integral symmetry is turned on.
 Leave Link  301 at Wed Sep  5 17:04:17 2018, MaxMem=   805306368 cpu:               0.1 elap:               0.0
 (Enter /home/g16/l302.exe)
 NPDir=0 NMtPBC=     1 NCelOv=     1 NCel=       1 NClECP=     1 NCelD=      1
         NCelK=      1 NCelE2=     1 NClLst=     1 CellRange=     0.0.
 One-electron integrals computed using PRISM.
 One-electron integral symmetry used in STVInt
 NBasis=   186 RedAO= T EigKep=  9.25D-05  NBF=   186
 NBsUse=   186 1.00D-06 EigRej= -1.00D+00 NBFU=   186
 Precomputing XC quadrature grid using
 IXCGrd= 4 IRadAn=           4 IRanWt=          -1 IRanGd=           0 AccXCQ= 1.00D-10.
 Generated NRdTot=       0 NPtTot=           0 NUsed=           0 NTot=          32
 NSgBfM=   198   198   198   198   198 MxSgAt=    10 MxSgA2=    10.
 Leave Link  302 at Wed Sep  5 17:04:17 2018, MaxMem=   805306368 cpu:               0.7 elap:               0.1
 (Enter /home/g16/l303.exe)
 DipDrv:  MaxL=1.
 Leave Link  303 at Wed Sep  5 17:04:17 2018, MaxMem=   805306368 cpu:               0.1 elap:               0.0
 (Enter /home/g16/l401.exe)
 ExpMin= 4.38D-02 ExpMax= 1.14D+04 ExpMxC= 1.72D+03 IAcc=2 IRadAn=         4 AccDes= 0.00D+00
 Harris functional with IExCor=  402 and IRadAn=      -1 diagonalized for initial guess.
 HarFok:  IExCor=  402 AccDes= 0.00D+00 IRadAn=        -1 IDoV= 1 UseB2=F ITyADJ=14
 ICtDFT=  3500011 ScaDFX=  1.000000  1.000000  1.000000  1.000000
 FoFCou: FMM=F IPFlag=           0 FMFlag=      100000 FMFlg1=           0
         NFxFlg=           0 DoJE=T BraDBF=F KetDBF=T FulRan=T
         wScrn=  0.000000 ICntrl=       500 IOpCl=  0 I1Cent=   200000004 NGrid=           0
         NMat0=    1 NMatS0=      1 NMatT0=    0 NMatD0=    1 NMtDS0=    0 NMtDT0=    0
 Petite list used in FoFCou.
 Harris En= -416.321307734949    
 JPrj=0 DoOrth=F DoCkMO=F.
 Initial guess <Sx>= 0.0000 <Sy>= 0.0000 <Sz>= 0.5000 <S**2>= 0.7500 S= 0.5000
 Leave Link  401 at Wed Sep  5 17:04:17 2018, MaxMem=   805306368 cpu:               1.3 elap:               0.2
 (Enter /home/g16/l502.exe)
 Keep R1 and R2 ints in memory in canonical form, NReq=310644046.
 FoFCou: FMM=F IPFlag=           0 FMFlag=           0 FMFlg1=           0
         NFxFlg=           0 DoJE=F BraDBF=F KetDBF=F FulRan=T
         wScrn=  0.000000 ICntrl=       600 IOpCl=  0 I1Cent=           0 NGrid=           0
         NMat0=    1 NMatS0=  17391 NMatT0=    0 NMatD0=    1 NMtDS0=    0 NMtDT0=    0
 Symmetry not used in FoFCou.
 Two-electron integral symmetry not used.
 UHF open shell SCF:
 Using DIIS extrapolation, IDIIS=  1040.
 NGot=   805306368 LenX=   502760190 LenY=   502720545
 Requested convergence on RMS density matrix=1.00D-08 within 128 cycles.
 Requested convergence on MAX density matrix=1.00D-06.
 Requested convergence on             energy=1.00D-06.
 No special actions if energy rises.

 Cycle   1  Pass 1  IDiag  1:
 E= -416.209511149806    
 DIIS: error= 2.71D-02 at cycle   1 NSaved=   1.
 NSaved= 1 IEnMin= 1 EnMin= -416.209511149806     IErMin= 1 ErrMin= 2.71D-02
 ErrMax= 2.71D-02  0.00D+00 EMaxC= 1.00D-01 BMatC= 7.40D-01 BMatP= 7.40D-01
 IDIUse=3 WtCom= 7.29D-01 WtEn= 2.71D-01
 Coeff-Com:  0.100D+01
 Coeff-En:   0.100D+01
 Coeff:      0.100D+01
 Gap=     0.174 Goal=   None    Shift=    0.000
 Gap=     0.392 Goal=   None    Shift=    0.000
 GapD=    0.174 DampG=1.000 DampE=0.500 DampFc=0.5000 IDamp=-1.
 Damping current iteration by 5.00D-01
 RMSDP=2.98D-03 MaxDP=1.38D-01              OVMax= 1.84D-01

 Cycle   2  Pass 1  IDiag  1:
 E= -416.262530095506     Delta-E=       -0.053018945701 Rises=F Damp=T
 DIIS: error= 5.51D-03 at cycle   2 NSaved=   2.
 NSaved= 2 IEnMin= 2 EnMin= -416.262530095506     IErMin= 2 ErrMin= 5.51D-03
 ErrMax= 5.51D-03  0.00D+00 EMaxC= 1.00D-01 BMatC= 4.57D-02 BMatP= 7.40D-01
 IDIUse=3 WtCom= 9.45D-01 WtEn= 5.51D-02
 Coeff-Com:  0.126D+00 0.874D+00
 Coeff-En:   0.224D+00 0.776D+00
 Coeff:      0.131D+00 0.869D+00
 Gap=     0.240 Goal=   None    Shift=    0.000
 Gap=     0.325 Goal=   None    Shift=    0.000
 RMSDP=7.01D-04 MaxDP=2.82D-02 DE=-5.30D-02 OVMax= 1.13D-01

 Cycle   3  Pass 1  IDiag  1:
 E= -416.344133326453     Delta-E=       -0.081603230947 Rises=F Damp=F
 DIIS: error= 3.65D-03 at cycle   3 NSaved=   3.
 NSaved= 3 IEnMin= 3 EnMin= -416.344133326453     IErMin= 3 ErrMin= 3.65D-03
 ErrMax= 3.65D-03  0.00D+00 EMaxC= 1.00D-01 BMatC= 1.35D-02 BMatP= 4.57D-02
 IDIUse=3 WtCom= 9.64D-01 WtEn= 3.65D-02
 Coeff-Com: -0.116D-02 0.321D+00 0.680D+00
 Coeff-En:   0.000D+00 0.000D+00 0.100D+01
 Coeff:     -0.112D-02 0.310D+00 0.691D+00
 Gap=     0.250 Goal=   None    Shift=    0.000
 Gap=     0.294 Goal=   None    Shift=    0.000
 RMSDP=2.68D-04 MaxDP=1.17D-02 DE=-8.16D-02 OVMax= 1.37D-02

 Cycle   4  Pass 1  IDiag  1:
 E= -416.345739943578     Delta-E=       -0.001606617124 Rises=F Damp=F
 DIIS: error= 2.79D-03 at cycle   4 NSaved=   4.
 NSaved= 4 IEnMin= 4 EnMin= -416.345739943578     IErMin= 4 ErrMin= 2.79D-03
 ErrMax= 2.79D-03  0.00D+00 EMaxC= 1.00D-01 BMatC= 3.92D-03 BMatP= 1.35D-02
 IDIUse=3 WtCom= 9.72D-01 WtEn= 2.79D-02
 Coeff-Com: -0.171D-01 0.623D-01 0.384D+00 0.571D+00
 Coeff-En:   0.000D+00 0.000D+00 0.232D+00 0.768D+00
 Coeff:     -0.166D-01 0.606D-01 0.379D+00 0.577D+00
 Gap=     0.246 Goal=   None    Shift=    0.000
 Gap=     0.296 Goal=   None    Shift=    0.000
 RMSDP=1.12D-04 MaxDP=5.42D-03 DE=-1.61D-03 OVMax= 7.13D-03

 Cycle   5  Pass 1  IDiag  1:
 E= -416.346548021118     Delta-E=       -0.000808077540 Rises=F Damp=F
 DIIS: error= 2.62D-04 at cycle   5 NSaved=   5.
 NSaved= 5 IEnMin= 5 EnMin= -416.346548021118     IErMin= 5 ErrMin= 2.62D-04
 ErrMax= 2.62D-04  0.00D+00 EMaxC= 1.00D-01 BMatC= 6.92D-05 BMatP= 3.92D-03
 IDIUse=3 WtCom= 9.97D-01 WtEn= 2.62D-03
 Coeff-Com: -0.506D-02-0.178D-02 0.756D-01 0.173D+00 0.758D+00
 Coeff-En:   0.000D+00 0.000D+00 0.000D+00 0.000D+00 0.100D+01
 Coeff:     -0.505D-02-0.178D-02 0.754D-01 0.172D+00 0.759D+00
 Gap=     0.247 Goal=   None    Shift=    0.000
 Gap=     0.296 Goal=   None    Shift=    0.000
 RMSDP=2.09D-05 MaxDP=6.88D-04 DE=-8.08D-04 OVMax= 1.52D-03

 Cycle   6  Pass 1  IDiag  1:
 E= -416.346564212868     Delta-E=       -0.000016191750 Rises=F Damp=F
 DIIS: error= 7.25D-05 at cycle   6 NSaved=   6.
 NSaved= 6 IEnMin= 6 EnMin= -416.346564212868     IErMin= 6 ErrMin= 7.25D-05
 ErrMax= 7.25D-05  0.00D+00 EMaxC= 1.00D-01 BMatC= 7.58D-06 BMatP= 6.92D-05
 IDIUse=1 WtCom= 1.00D+00 WtEn= 0.00D+00
 Coeff-Com: -0.217D-03-0.518D-02-0.679D-02 0.745D-02 0.216D+00 0.789D+00
 Coeff:     -0.217D-03-0.518D-02-0.679D-02 0.745D-02 0.216D+00 0.789D+00
 Gap=     0.247 Goal=   None    Shift=    0.000
 Gap=     0.297 Goal=   None    Shift=    0.000
 RMSDP=9.64D-06 MaxDP=3.60D-04 DE=-1.62D-05 OVMax= 6.17D-04

 Cycle   7  Pass 1  IDiag  1:
 E= -416.346566138915     Delta-E=       -0.000001926047 Rises=F Damp=F
 DIIS: error= 6.69D-05 at cycle   7 NSaved=   7.
 NSaved= 7 IEnMin= 7 EnMin= -416.346566138915     IErMin= 7 ErrMin= 6.69D-05
 ErrMax= 6.69D-05  0.00D+00 EMaxC= 1.00D-01 BMatC= 2.80D-06 BMatP= 7.58D-06
 IDIUse=1 WtCom= 1.00D+00 WtEn= 0.00D+00
 Coeff-Com:  0.966D-03-0.207D-02-0.186D-01-0.332D-01-0.602D-01 0.398D+00
 Coeff-Com:  0.715D+00
 Coeff:      0.966D-03-0.207D-02-0.186D-01-0.332D-01-0.602D-01 0.398D+00
 Coeff:      0.715D+00
 Gap=     0.247 Goal=   None    Shift=    0.000
 Gap=     0.297 Goal=   None    Shift=    0.000
 RMSDP=4.06D-06 MaxDP=1.67D-04 DE=-1.93D-06 OVMax= 2.33D-04

 Cycle   8  Pass 1  IDiag  1:
 E= -416.346566727578     Delta-E=       -0.000000588663 Rises=F Damp=F
 DIIS: error= 3.30D-05 at cycle   8 NSaved=   8.
 NSaved= 8 IEnMin= 8 EnMin= -416.346566727578     IErMin= 8 ErrMin= 3.30D-05
 ErrMax= 3.30D-05  0.00D+00 EMaxC= 1.00D-01 BMatC= 5.17D-07 BMatP= 2.80D-06
 IDIUse=1 WtCom= 1.00D+00 WtEn= 0.00D+00
 Coeff-Com:  0.551D-03-0.520D-03-0.938D-02-0.194D-01-0.577D-01 0.130D+00
 Coeff-Com:  0.387D+00 0.570D+00
 Coeff:      0.551D-03-0.520D-03-0.938D-02-0.194D-01-0.577D-01 0.130D+00
 Coeff:      0.387D+00 0.570D+00
 Gap=     0.247 Goal=   None    Shift=    0.000
 Gap=     0.297 Goal=   None    Shift=    0.000
 RMSDP=1.36D-06 MaxDP=5.11D-05 DE=-5.89D-07 OVMax= 6.59D-05

 Cycle   9  Pass 1  IDiag  1:
 E= -416.346566817900     Delta-E=       -0.000000090322 Rises=F Damp=F
 DIIS: error= 5.90D-06 at cycle   9 NSaved=   9.
 NSaved= 9 IEnMin= 9 EnMin= -416.346566817900     IErMin= 9 ErrMin= 5.90D-06
 ErrMax= 5.90D-06  0.00D+00 EMaxC= 1.00D-01 BMatC= 3.01D-08 BMatP= 5.17D-07
 IDIUse=1 WtCom= 1.00D+00 WtEn= 0.00D+00
 Coeff-Com:  0.201D-04 0.233D-03 0.649D-04-0.702D-03-0.882D-02-0.262D-01
 Coeff-Com: -0.103D-01 0.173D+00 0.872D+00
 Coeff:      0.201D-04 0.233D-03 0.649D-04-0.702D-03-0.882D-02-0.262D-01
 Coeff:     -0.103D-01 0.173D+00 0.872D+00
 Gap=     0.247 Goal=   None    Shift=    0.000
 Gap=     0.297 Goal=   None    Shift=    0.000
 RMSDP=5.40D-07 MaxDP=2.57D-05 DE=-9.03D-08 OVMax= 3.93D-05

 Cycle  10  Pass 1  IDiag  1:
 E= -416.346566826122     Delta-E=       -0.000000008222 Rises=F Damp=F
 DIIS: error= 1.98D-06 at cycle  10 NSaved=  10.
 NSaved=10 IEnMin=10 EnMin= -416.346566826122     IErMin=10 ErrMin= 1.98D-06
 ErrMax= 1.98D-06  0.00D+00 EMaxC= 1.00D-01 BMatC= 1.85D-09 BMatP= 3.01D-08
 IDIUse=1 WtCom= 1.00D+00 WtEn= 0.00D+00
 Coeff-Com: -0.372D-04 0.987D-04 0.745D-03 0.133D-02 0.252D-02-0.167D-01
 Coeff-Com: -0.334D-01 0.461D-02 0.216D+00 0.824D+00
 Coeff:     -0.372D-04 0.987D-04 0.745D-03 0.133D-02 0.252D-02-0.167D-01
 Coeff:     -0.334D-01 0.461D-02 0.216D+00 0.824D+00
 Gap=     0.247 Goal=   None    Shift=    0.000
 Gap=     0.297 Goal=   None    Shift=    0.000
 RMSDP=1.55D-07 MaxDP=7.89D-06 DE=-8.22D-09 OVMax= 1.20D-05

 Cycle  11  Pass 1  IDiag  1:
 E= -416.346566826645     Delta-E=       -0.000000000523 Rises=F Damp=F
 DIIS: error= 6.73D-07 at cycle  11 NSaved=  11.
 NSaved=11 IEnMin=11 EnMin= -416.346566826645     IErMin=11 ErrMin= 6.73D-07
 ErrMax= 6.73D-07  0.00D+00 EMaxC= 1.00D-01 BMatC= 2.82D-10 BMatP= 1.85D-09
 IDIUse=1 WtCom= 1.00D+00 WtEn= 0.00D+00
 Coeff-Com: -0.138D-04 0.183D-04 0.246D-03 0.514D-03 0.155D-02-0.468D-02
 Coeff-Com: -0.104D-01-0.846D-02 0.871D-02 0.289D+00 0.723D+00
 Coeff:     -0.138D-04 0.183D-04 0.246D-03 0.514D-03 0.155D-02-0.468D-02
 Coeff:     -0.104D-01-0.846D-02 0.871D-02 0.289D+00 0.723D+00
 Gap=     0.247 Goal=   None    Shift=    0.000
 Gap=     0.297 Goal=   None    Shift=    0.000
 RMSDP=5.04D-08 MaxDP=2.13D-06 DE=-5.23D-10 OVMax= 5.11D-06

 Cycle  12  Pass 1  IDiag  1:
 E= -416.346566826720     Delta-E=       -0.000000000074 Rises=F Damp=F
 DIIS: error= 2.75D-07 at cycle  12 NSaved=  12.
 NSaved=12 IEnMin=12 EnMin= -416.346566826720     IErMin=12 ErrMin= 2.75D-07
 ErrMax= 2.75D-07  0.00D+00 EMaxC= 1.00D-01 BMatC= 3.83D-11 BMatP= 2.82D-10
 IDIUse=1 WtCom= 1.00D+00 WtEn= 0.00D+00
 Coeff-Com:  0.134D-06-0.661D-05-0.165D-04 0.221D-05 0.179D-03 0.448D-03
 Coeff-Com:  0.143D-02-0.283D-02-0.269D-01-0.186D-01 0.263D+00 0.783D+00
 Coeff:      0.134D-06-0.661D-05-0.165D-04 0.221D-05 0.179D-03 0.448D-03
 Coeff:      0.143D-02-0.283D-02-0.269D-01-0.186D-01 0.263D+00 0.783D+00
 Gap=     0.247 Goal=   None    Shift=    0.000
 Gap=     0.297 Goal=   None    Shift=    0.000
 RMSDP=1.95D-08 MaxDP=7.43D-07 DE=-7.44D-11 OVMax= 1.09D-06

 Cycle  13  Pass 1  IDiag  1:
 E= -416.346566826732     Delta-E=       -0.000000000013 Rises=F Damp=F
 DIIS: error= 5.31D-08 at cycle  13 NSaved=  13.
 NSaved=13 IEnMin=13 EnMin= -416.346566826732     IErMin=13 ErrMin= 5.31D-08
 ErrMax= 5.31D-08  0.00D+00 EMaxC= 1.00D-01 BMatC= 1.62D-12 BMatP= 3.83D-11
 IDIUse=1 WtCom= 1.00D+00 WtEn= 0.00D+00
 Coeff-Com:  0.117D-05-0.230D-05-0.232D-04-0.417D-04-0.118D-03 0.463D-03
 Coeff-Com:  0.973D-03 0.319D-03-0.341D-02-0.277D-01-0.303D-01 0.106D+00
 Coeff-Com:  0.954D+00
 Coeff:      0.117D-05-0.230D-05-0.232D-04-0.417D-04-0.118D-03 0.463D-03
 Coeff:      0.973D-03 0.319D-03-0.341D-02-0.277D-01-0.303D-01 0.106D+00
 Coeff:      0.954D+00
 Gap=     0.247 Goal=   None    Shift=    0.000
 Gap=     0.297 Goal=   None    Shift=    0.000
 RMSDP=7.25D-09 MaxDP=3.09D-07 DE=-1.25D-11 OVMax= 3.65D-07

 SCF Done:  E(UB3LYP) =  -416.346566827     A.U. after   13 cycles
            NFock= 13  Conv=0.72D-08     -V/T= 2.0031
 <Sx>= 0.0000 <Sy>= 0.0000 <Sz>= 0.5000 <S**2>= 0.7538 S= 0.5019
 <L.S>=  0.00000000000    
 KE= 4.150458901925D+02 PE=-1.507240807636D+03 EE= 4.150383187208D+02
 Annihilation of the first spin contaminant:
 S**2 before annihilation     0.7538,   after     0.7500
 Leave Link  502 at Wed Sep  5 17:04:25 2018, MaxMem=   805306368 cpu:              48.2 elap:               8.2
 (Enter /home/g16/l601.exe)
 Copying SCF densities to generalized density rwf, IOpCl= 1 IROHF=0.

 **********************************************************************

            Population analysis using the SCF density.

 **********************************************************************

 Orbital symmetries:
 Alpha Orbitals:
       Occupied  (A) (A) (A) (A) (A) (A) (A) (A) (A) (A) (A) (A)
                 (A) (A) (A) (A) (A) (A) (A) (A) (A) (A) (A) (A)
                 (A)
       Virtual   (A) (A) (A) (A) (A) (A) (A) (A) (A) (A) (A) (A)
                 (A) (A) (A) (A) (A) (A) (A) (A) (A) (A) (A) (A)
                 (A) (A) (A) (A) (A) (A) (A) (A) (A) (A) (A) (A)
                 (A) (A) (A) (A) (A) (A) (A) (A) (A) (A) (A) (A)
                 (A) (A) (A) (A) (A) (A) (A) (A) (A) (A) (A) (A)
                 (A) (A) (A) (A) (A) (A) (A) (A) (A) (A) (A) (A)
                 (A) (A) (A) (A) (A) (A) (A) (A) (A) (A) (A) (A)
                 (A) (A) (A) (A) (A) (A) (A) (A) (A) (A) (A) (A)
                 (A) (A) (A) (A) (A) (A) (A) (A) (A) (A) (A) (A)
                 (A) (A) (A) (A) (A) (A) (A) (A) (A) (A) (A) (A)
                 (A) (A) (A) (A) (A) (A) (A) (A) (A) (A) (A) (A)
                 (A) (A) (A) (A) (A) (A) (A) (A) (A) (A) (A) (A)
                 (A) (A) (A) (A) (A) (A) (A) (A) (A) (A) (A) (A)
                 (A) (A) (A) (A) (A)
 Beta  Orbitals:
       Occupied  (A) (A) (A) (A) (A) (A) (A) (A) (A) (A) (A) (A)
                 (A) (A) (A) (A) (A) (A) (A) (A) (A) (A) (A) (A)
       Virtual   (A) (A) (A) (A) (A) (A) (A) (A) (A) (A) (A) (A)
                 (A) (A) (A) (A) (A) (A) (A) (A) (A) (A) (A) (A)
                 (A) (A) (A) (A) (A) (A) (A) (A) (A) (A) (A) (A)
                 (A) (A) (A) (A) (A) (A) (A) (A) (A) (A) (A) (A)
                 (A) (A) (A) (A) (A) (A) (A) (A) (A) (A) (A) (A)
                 (A) (A) (A) (A) (A) (A) (A) (A) (A) (A) (A) (A)
                 (A) (A) (A) (A) (A) (A) (A) (A) (A) (A) (A) (A)
                 (A) (A) (A) (A) (A) (A) (A) (A) (A) (A) (A) (A)
                 (A) (A) (A) (A) (A) (A) (A) (A) (A) (A) (A) (A)
                 (A) (A) (A) (A) (A) (A) (A) (A) (A) (A) (A) (A)
                 (A) (A) (A) (A) (A) (A) (A) (A) (A) (A) (A) (A)
                 (A) (A) (A) (A) (A) (A) (A) (A) (A) (A) (A) (A)
                 (A) (A) (A) (A) (A) (A) (A) (A) (A) (A) (A) (A)
                 (A) (A) (A) (A) (A) (A)
 The electronic state is 2-A.
 Alpha  occ. eigenvalues --  -24.71565 -24.71559 -24.71559 -10.43100 -10.21359
 Alpha  occ. eigenvalues --  -10.20594  -1.32095  -1.23316  -1.23292  -0.82823
 Alpha  occ. eigenvalues --   -0.71411  -0.65204  -0.60472  -0.60148  -0.55327
 Alpha  occ. eigenvalues --   -0.49626  -0.47960  -0.47427  -0.45148  -0.43698
 Alpha  occ. eigenvalues --   -0.41992  -0.41926  -0.40389  -0.39372  -0.24325
 Alpha virt. eigenvalues --    0.00410   0.02294   0.03271   0.04123   0.06560
 Alpha virt. eigenvalues --    0.06914   0.07155   0.07359   0.08235   0.11238
 Alpha virt. eigenvalues --    0.11912   0.13469   0.13990   0.14754   0.16980
 Alpha virt. eigenvalues --    0.18782   0.20447   0.22046   0.22064   0.24034
 Alpha virt. eigenvalues --    0.24932   0.25753   0.28025   0.28270   0.29266
 Alpha virt. eigenvalues --    0.31733   0.32765   0.32799   0.34540   0.35416
 Alpha virt. eigenvalues --    0.36901   0.37358   0.39955   0.44195   0.44587
 Alpha virt. eigenvalues --    0.47563   0.50902   0.53223   0.55021   0.56865
 Alpha virt. eigenvalues --    0.61181   0.63320   0.63733   0.64302   0.67798
 Alpha virt. eigenvalues --    0.68377   0.72489   0.74735   0.78071   0.83093
 Alpha virt. eigenvalues --    0.83421   0.91439   0.98463   0.99434   1.04674
 Alpha virt. eigenvalues --    1.07215   1.09949   1.10748   1.19266   1.24098
 Alpha virt. eigenvalues --    1.24435   1.27892   1.30326   1.30388   1.33200
 Alpha virt. eigenvalues --    1.35812   1.37504   1.38771   1.39500   1.42984
 Alpha virt. eigenvalues --    1.48722   1.49701   1.53768   1.64340   1.70524
 Alpha virt. eigenvalues --    1.70875   1.80785   1.84789   1.93888   1.95486
 Alpha virt. eigenvalues --    1.98389   1.98652   2.00082   2.05847   2.06149
 Alpha virt. eigenvalues --    2.07220   2.12531   2.14283   2.14706   2.16436
 Alpha virt. eigenvalues --    2.19640   2.26598   2.28389   2.31421   2.36927
 Alpha virt. eigenvalues --    2.48135   2.51261   2.54251   2.56966   2.59030
 Alpha virt. eigenvalues --    2.63912   2.72255   2.74936   2.79847   2.85121
 Alpha virt. eigenvalues --    2.90487   2.93081   2.97908   3.04198   3.21518
 Alpha virt. eigenvalues --    3.22424   3.25879   3.28158   3.36109   3.37046
 Alpha virt. eigenvalues --    3.44409   3.45605   3.50237   3.51776   3.54487
 Alpha virt. eigenvalues --    3.55462   3.60377   3.60867   3.66089   3.73528
 Alpha virt. eigenvalues --    4.10159   4.20452   4.22151   4.23211   4.37876
 Alpha virt. eigenvalues --    4.52290   6.28458   6.31616   6.33895   6.36438
 Alpha virt. eigenvalues --    6.37962   6.40362   6.43436   6.72496   6.73487
 Alpha virt. eigenvalues --    9.00141   9.02161   9.02643   9.13068   9.13408
 Alpha virt. eigenvalues --    9.13598   9.13687   9.24405   9.26262   9.42026
 Alpha virt. eigenvalues --    9.57316   9.59732   9.61698   9.76775   9.79066
 Alpha virt. eigenvalues --   23.79151  23.91048  23.93666  66.80778  66.82310
 Alpha virt. eigenvalues --   66.85510
  Beta  occ. eigenvalues --  -24.71554 -24.71554 -24.71547 -10.42931 -10.21451
  Beta  occ. eigenvalues --  -10.19178  -1.32051  -1.23301  -1.23258  -0.81822
  Beta  occ. eigenvalues --   -0.70159  -0.63530  -0.60401  -0.59941  -0.54772
  Beta  occ. eigenvalues --   -0.49232  -0.47880  -0.47335  -0.44842  -0.43547
  Beta  occ. eigenvalues --   -0.41899  -0.41473  -0.39689  -0.38932
  Beta virt. eigenvalues --   -0.09263   0.00565   0.02512   0.03298   0.04387
  Beta virt. eigenvalues --    0.06591   0.06914   0.07278   0.07377   0.09303
  Beta virt. eigenvalues --    0.11484   0.12244   0.13620   0.14122   0.15099
  Beta virt. eigenvalues --    0.17171   0.19392   0.20757   0.22171   0.22552
  Beta virt. eigenvalues --    0.24735   0.25434   0.25905   0.28166   0.28360
  Beta virt. eigenvalues --    0.29459   0.31708   0.32800   0.32947   0.34616
  Beta virt. eigenvalues --    0.35459   0.37141   0.37415   0.40037   0.45095
  Beta virt. eigenvalues --    0.45252   0.47861   0.52568   0.53391   0.57504
  Beta virt. eigenvalues --    0.58983   0.61692   0.63847   0.64347   0.64860
  Beta virt. eigenvalues --    0.68812   0.68914   0.73649   0.76002   0.78862
  Beta virt. eigenvalues --    0.83974   0.84538   0.91656   0.99514   0.99558
  Beta virt. eigenvalues --    1.05109   1.07732   1.10922   1.11705   1.19924
  Beta virt. eigenvalues --    1.24174   1.24928   1.28441   1.30358   1.31182
  Beta virt. eigenvalues --    1.33433   1.35888   1.37822   1.38770   1.39558
  Beta virt. eigenvalues --    1.43186   1.48931   1.49720   1.53982   1.64475
  Beta virt. eigenvalues --    1.70675   1.71890   1.80940   1.85276   1.93965
  Beta virt. eigenvalues --    1.95570   1.98597   1.98741   2.00116   2.06010
  Beta virt. eigenvalues --    2.06242   2.07700   2.12605   2.14288   2.14945
  Beta virt. eigenvalues --    2.16534   2.19806   2.26946   2.28619   2.31669
  Beta virt. eigenvalues --    2.37339   2.48675   2.51382   2.54395   2.57096
  Beta virt. eigenvalues --    2.59388   2.64143   2.72477   2.75597   2.82658
  Beta virt. eigenvalues --    2.87728   2.90675   2.94857   2.98135   3.05456
  Beta virt. eigenvalues --    3.22538   3.25055   3.29656   3.30338   3.36673
  Beta virt. eigenvalues --    3.40174   3.45214   3.46345   3.51006   3.52924
  Beta virt. eigenvalues --    3.54971   3.55683   3.60562   3.60736   3.67916
  Beta virt. eigenvalues --    3.78422   4.11702   4.20624   4.22391   4.23190
  Beta virt. eigenvalues --    4.38097   4.53317   6.28462   6.31643   6.33911
  Beta virt. eigenvalues --    6.36452   6.37991   6.40383   6.43459   6.72526
  Beta virt. eigenvalues --    6.73544   9.00179   9.02186   9.02657   9.13104
  Beta virt. eigenvalues --    9.13426   9.13615   9.13711   9.24438   9.26289
  Beta virt. eigenvalues --    9.42042   9.57340   9.59745   9.61741   9.76787
  Beta virt. eigenvalues --    9.79093  23.79937  23.91305  23.94372  66.80782
  Beta virt. eigenvalues --   66.82326  66.85516
     Alpha Molecular Orbital Coefficients:
                           1         2         3         4         5
                           O         O         O         O         O
     Eigenvalues --   -24.71565 -24.71559 -24.71559 -10.43100 -10.21359
   1 1   C  1S          0.00000   0.00000   0.00000  -0.00003   0.01099
   2        2S         -0.00000  -0.00002  -0.00001   0.00007   0.00899
   3        2PX        -0.00002  -0.00005  -0.00003   0.00001  -0.00038
   4        2PY        -0.00001   0.00001   0.00001  -0.00000   0.00035
   5        2PZ         0.00000  -0.00002   0.00004   0.00000  -0.00000
   6        3S         -0.00001   0.00019   0.00012  -0.00038   0.00131
   7        3PX         0.00004   0.00014   0.00009   0.00025   0.00078
   8        3PY         0.00008  -0.00012  -0.00008   0.00003  -0.00082
   9        3PZ        -0.00000   0.00008  -0.00013  -0.00000   0.00000
  10        4S          0.00003  -0.00081  -0.00051  -0.00369   0.00420
  11        4PX        -0.00024   0.00075   0.00047   0.00024  -0.00085
  12        4PY        -0.00070   0.00025   0.00016  -0.00036  -0.00027
  13        4PZ         0.00000  -0.00026   0.00042  -0.00000   0.00000
  14        5S         -0.00297   0.00342   0.00213   0.00452  -0.00124
  15        5PX         0.00084  -0.00088  -0.00055  -0.00093   0.00032
  16        5PY        -0.00019   0.00024   0.00015   0.00048   0.00031
  17        5PZ        -0.00000  -0.00002   0.00003  -0.00000  -0.00000
  18        6D 0       -0.00001  -0.00003  -0.00002   0.00012   0.00000
  19        6D+1        0.00000   0.00001  -0.00002   0.00000   0.00000
  20        6D-1       -0.00000   0.00003  -0.00004   0.00000  -0.00000
  21        6D+2       -0.00003   0.00005   0.00003  -0.00007  -0.00002
  22        6D-2       -0.00004   0.00007   0.00004  -0.00003  -0.00002
  23        7D 0        0.00007   0.00026   0.00016  -0.00108   0.00171
  24        7D+1       -0.00000  -0.00004   0.00007  -0.00000   0.00000
  25        7D-1        0.00000  -0.00016   0.00025  -0.00000   0.00001
  26        7D+2        0.00015  -0.00033  -0.00021   0.00001  -0.00011
  27        7D-2        0.00012  -0.00021  -0.00013   0.00043   0.00112
  28 2   H  1S          0.00002  -0.00003  -0.00006   0.00004  -0.00005
  29        2S         -0.00020   0.00003  -0.00000   0.00114  -0.00177
  30        3S         -0.00003  -0.00026   0.00018  -0.00008   0.00084
  31        4PX         0.00004  -0.00004   0.00004  -0.00015   0.00042
  32        4PY        -0.00001  -0.00004   0.00003   0.00015  -0.00035
  33        4PZ        -0.00002  -0.00000  -0.00004   0.00008  -0.00017
  34 3   H  1S          0.00002  -0.00007   0.00000   0.00004  -0.00005
  35        2S         -0.00020   0.00001   0.00003   0.00114  -0.00177
  36        3S         -0.00003   0.00005  -0.00031  -0.00008   0.00084
  37        4PX         0.00004   0.00001  -0.00005  -0.00015   0.00042
  38        4PY        -0.00001   0.00001  -0.00005   0.00015  -0.00035
  39        4PZ         0.00002   0.00003  -0.00002  -0.00008   0.00017
  40 4   C  1S          0.00001   0.00001   0.00000   0.00028   0.56285
  41        2S         -0.00003  -0.00002  -0.00001   0.00025   0.46305
  42        2PX        -0.00002  -0.00005  -0.00003  -0.00036  -0.00009
  43        2PY        -0.00001  -0.00002  -0.00001  -0.00028  -0.00039
  44        2PZ         0.00000  -0.00002   0.00004   0.00000   0.00000
  45        3S          0.00037   0.00026   0.00016   0.00010   0.02043
  46        3PX         0.00004   0.00018   0.00011   0.00044  -0.00028
  47        3PY         0.00010   0.00006   0.00004   0.00086   0.00145
  48        3PZ        -0.00000   0.00009  -0.00015  -0.00000  -0.00000
  49        4S         -0.00114  -0.00073  -0.00045   0.00660  -0.01001
  50        4PX         0.00195   0.00034   0.00021   0.00115  -0.00015
  51        4PY         0.00008   0.00019   0.00012  -0.00095   0.00376
  52        4PZ         0.00000   0.00119  -0.00191   0.00000  -0.00001
  53        5S          0.01040   0.00095   0.00059  -0.00856  -0.00579
  54        5PX        -0.00121  -0.00168  -0.00105   0.00032   0.00109
  55        5PY        -0.00166   0.00017   0.00011   0.00154  -0.00054
  56        5PZ         0.00000  -0.00020   0.00032  -0.00000   0.00000
  57        6D 0        0.00000   0.00001   0.00000   0.00001   0.00012
  58        6D+1       -0.00000   0.00002  -0.00004  -0.00000   0.00000
  59        6D-1        0.00000  -0.00001   0.00001  -0.00000   0.00000
  60        6D+2        0.00001   0.00002   0.00001  -0.00002  -0.00013
  61        6D-2        0.00003   0.00003   0.00002   0.00010  -0.00010
  62        7D 0        0.00031  -0.00020  -0.00012   0.00109   0.00166
  63        7D+1        0.00000  -0.00014   0.00022   0.00000  -0.00000
  64        7D-1        0.00000   0.00004  -0.00007   0.00000   0.00000
  65        7D+2       -0.00024  -0.00011  -0.00007  -0.00073  -0.00060
  66        7D-2       -0.00002  -0.00037  -0.00023  -0.00154   0.00023
  67 5   H  1S          0.00002   0.00003   0.00006  -0.00007   0.00014
  68        2S         -0.00018   0.00038  -0.00058  -0.00148  -0.00417
  69        3S         -0.00057   0.00036   0.00024   0.00066   0.00337
  70        4PX         0.00004   0.00008  -0.00000  -0.00010  -0.00012
  71        4PY         0.00009  -0.00002   0.00003   0.00017   0.00122
  72        4PZ        -0.00006  -0.00001  -0.00008  -0.00023  -0.00188
  73 6   H  1S          0.00002   0.00006   0.00000  -0.00007   0.00014
  74        2S         -0.00018  -0.00035   0.00060  -0.00148  -0.00417
  75        3S         -0.00057   0.00038   0.00022   0.00066   0.00337
  76        4PX         0.00004   0.00004   0.00007  -0.00010  -0.00012
  77        4PY         0.00009   0.00002  -0.00003   0.00017   0.00122
  78        4PZ         0.00006   0.00007  -0.00002   0.00022   0.00188
  79 7   C  1S          0.00003   0.00004   0.00002   0.56339  -0.00031
  80        2S         -0.00011  -0.00014  -0.00009   0.46316  -0.00027
  81        2PX         0.00010   0.00002   0.00002  -0.00119   0.00048
  82        2PY        -0.00013   0.00011   0.00007  -0.00069   0.00026
  83        2PZ         0.00000   0.00010  -0.00016   0.00000  -0.00000
  84        3S         -0.00014  -0.00017  -0.00010   0.01851  -0.00002
  85        3PX        -0.00126  -0.00025  -0.00015   0.00029  -0.00108
  86        3PY         0.00131  -0.00124  -0.00077   0.00010  -0.00040
  87        3PZ        -0.00000  -0.00109   0.00175   0.00000   0.00000
  88        4S          0.00897   0.00965   0.00602  -0.01243   0.00862
  89        4PX        -0.00413   0.00023   0.00014  -0.00336  -0.00257
  90        4PY         0.00431  -0.00431  -0.00268  -0.00095   0.00108
  91        4PZ        -0.00001  -0.00304   0.00489   0.00000  -0.00000
  92        5S         -0.00769  -0.00583  -0.00363   0.00302   0.00452
  93        5PX        -0.00164  -0.00157  -0.00098  -0.00021   0.00048
  94        5PY        -0.00112  -0.00085  -0.00053   0.00022   0.00050
  95        5PZ         0.00000   0.00020  -0.00031  -0.00000  -0.00000
  96        6D 0       -0.00007   0.00008   0.00005   0.00003   0.00001
  97        6D+1        0.00000   0.00004  -0.00006   0.00000  -0.00000
  98        6D-1       -0.00000   0.00010  -0.00016   0.00000   0.00000
  99        6D+2        0.00007  -0.00008  -0.00005   0.00001  -0.00001
 100        6D-2       -0.00013   0.00002   0.00001  -0.00002   0.00010
 101        7D 0       -0.00113   0.00104   0.00065   0.00036   0.00031
 102        7D+1        0.00000   0.00005  -0.00008   0.00000   0.00000
 103        7D-1       -0.00000   0.00096  -0.00153   0.00000   0.00000
 104        7D+2        0.00044  -0.00056  -0.00035  -0.00044  -0.00027
 105        7D-2       -0.00143   0.00038   0.00023  -0.00065  -0.00237
 106 8   F  1S          0.54726   0.01815   0.01114  -0.00003  -0.00000
 107        2S          0.47149   0.01563   0.00959  -0.00010  -0.00002
 108        2PX         0.00069   0.00001   0.00001   0.00012   0.00003
 109        2PY        -0.00052  -0.00001  -0.00001  -0.00009  -0.00001
 110        2PZ         0.00000   0.00000  -0.00000   0.00000   0.00000
 111        3S          0.01304   0.00049   0.00030   0.00093   0.00034
 112        3PX         0.00003   0.00003   0.00002   0.00006  -0.00014
 113        3PY        -0.00001  -0.00003  -0.00002  -0.00005   0.00000
 114        3PZ         0.00000  -0.00001   0.00002   0.00000  -0.00000
 115        4S         -0.01244  -0.00016  -0.00010  -0.00258  -0.00316
 116        4PX        -0.00314   0.00010   0.00006  -0.00174  -0.00136
 117        4PY         0.00238   0.00022   0.00013   0.00138   0.00119
 118        4PZ        -0.00000   0.00021  -0.00034  -0.00000  -0.00000
 119        5S          0.00096   0.00013   0.00008   0.00191  -0.00362
 120        5PX         0.00019   0.00008   0.00005   0.00206  -0.00082
 121        5PY        -0.00027   0.00059   0.00036  -0.00053   0.00078
 122        5PZ         0.00000   0.00044  -0.00071   0.00000  -0.00000
 123        6D 0       -0.00013   0.00000   0.00000  -0.00013   0.00003
 124        6D+1        0.00000  -0.00001   0.00001   0.00000   0.00000
 125        6D-1       -0.00000   0.00001  -0.00002  -0.00000   0.00000
 126        6D+2        0.00006  -0.00002  -0.00001   0.00006  -0.00001
 127        6D-2       -0.00021  -0.00000  -0.00000  -0.00024  -0.00006
 128        7D 0        0.00041  -0.00004  -0.00003   0.00055  -0.00005
 129        7D+1       -0.00000   0.00003  -0.00005  -0.00000  -0.00000
 130        7D-1        0.00000  -0.00006   0.00010   0.00000   0.00000
 131        7D+2       -0.00018   0.00009   0.00005  -0.00027   0.00002
 132        7D-2        0.00068  -0.00000  -0.00000   0.00102   0.00033
 133 9   F  1S         -0.01516   0.53326  -0.12389  -0.00003  -0.00000
 134        2S         -0.01307   0.45942  -0.10675  -0.00010  -0.00001
 135        2PX         0.00000   0.00007  -0.00003   0.00002   0.00003
 136        2PY        -0.00002   0.00051  -0.00012   0.00009   0.00001
 137        2PZ        -0.00002   0.00068  -0.00016   0.00013   0.00001
 138        3S         -0.00031   0.01275  -0.00280   0.00089   0.00017
 139        3PX        -0.00004   0.00005   0.00004  -0.00001  -0.00015
 140        3PY         0.00004   0.00001   0.00001   0.00004  -0.00003
 141        3PZ         0.00001   0.00004   0.00004   0.00002  -0.00003
 142        4S          0.00042  -0.01208   0.00228  -0.00229  -0.00124
 143        4PX         0.00040  -0.00050   0.00000  -0.00008   0.00019
 144        4PY        -0.00014  -0.00215   0.00060  -0.00123  -0.00043
 145        4PZ         0.00020  -0.00310   0.00023  -0.00163  -0.00044
 146        5S         -0.00067   0.00136  -0.00132   0.00261  -0.00011
 147        5PX         0.00050   0.00017   0.00010   0.00098   0.00030
 148        5PY        -0.00079   0.00041   0.00015   0.00133   0.00024
 149        5PZ        -0.00027   0.00019  -0.00107   0.00131   0.00006
 150        6D 0       -0.00002   0.00012  -0.00001   0.00014   0.00002
 151        6D+1       -0.00002   0.00003  -0.00001   0.00003   0.00002
 152        6D-1       -0.00000   0.00020  -0.00006   0.00023  -0.00000
 153        6D+2        0.00000  -0.00007   0.00002  -0.00009  -0.00003
 154        6D-2       -0.00002   0.00002  -0.00000   0.00002  -0.00005
 155        7D 0        0.00009  -0.00039  -0.00001  -0.00057  -0.00009
 156        7D+1        0.00007  -0.00010   0.00005  -0.00015  -0.00013
 157        7D-1        0.00002  -0.00061   0.00022  -0.00097  -0.00004
 158        7D+2       -0.00001   0.00023  -0.00007   0.00038   0.00014
 159        7D-2        0.00011  -0.00008   0.00002  -0.00008   0.00018
 160 10  F  1S         -0.01495   0.12348   0.53336  -0.00003  -0.00000
 161        2S         -0.01289   0.10637   0.45952  -0.00010  -0.00001
 162        2PX         0.00000   0.00000   0.00008   0.00002   0.00003
 163        2PY        -0.00002   0.00011   0.00051   0.00009   0.00001
 164        2PZ         0.00002  -0.00015  -0.00068  -0.00013  -0.00001
 165        3S         -0.00031   0.00310   0.01268   0.00089   0.00017
 166        3PX        -0.00004   0.00006   0.00002  -0.00001  -0.00015
 167        3PY         0.00004   0.00001   0.00001   0.00004  -0.00003
 168        3PZ        -0.00001  -0.00006  -0.00002  -0.00002   0.00003
 169        4S          0.00041  -0.00327  -0.01185  -0.00229  -0.00124
 170        4PX         0.00040  -0.00022  -0.00045  -0.00008   0.00019
 171        4PY        -0.00014  -0.00041  -0.00218  -0.00123  -0.00043
 172        4PZ        -0.00019   0.00116   0.00289   0.00163   0.00044
 173        5S         -0.00067  -0.00059   0.00181   0.00261  -0.00011
 174        5PX         0.00050   0.00016   0.00010   0.00098   0.00030
 175        5PY        -0.00078   0.00031   0.00030   0.00133   0.00024
 176        5PZ         0.00028   0.00088  -0.00064  -0.00132  -0.00006
 177        6D 0       -0.00002   0.00005   0.00011   0.00014   0.00002
 178        6D+1        0.00002  -0.00000  -0.00003  -0.00003  -0.00002
 179        6D-1        0.00000  -0.00003  -0.00020  -0.00023   0.00000
 180        6D+2        0.00000  -0.00001  -0.00007  -0.00009  -0.00003
 181        6D-2       -0.00002   0.00001   0.00002   0.00002  -0.00005
 182        7D 0        0.00009  -0.00018  -0.00035  -0.00058  -0.00009
 183        7D+1       -0.00007   0.00000   0.00011   0.00015   0.00013
 184        7D-1       -0.00002   0.00007   0.00065   0.00097   0.00004
 185        7D+2       -0.00001   0.00003   0.00023   0.00038   0.00014
 186        7D-2        0.00011  -0.00002  -0.00008  -0.00008   0.00018
                           6         7         8         9        10
                           O         O         O         O         O
     Eigenvalues --   -10.20594  -1.32095  -1.23316  -1.23292  -0.82823
   1 1   C  1S          0.56253  -0.00088  -0.00000   0.00057  -0.05721
   2        2S          0.46325  -0.00120   0.00000   0.00064  -0.08895
   3        2PX        -0.00024  -0.00083  -0.00000   0.00073  -0.03019
   4        2PY         0.00027   0.00006  -0.00000   0.00005   0.01716
   5        2PZ        -0.00000   0.00000   0.00002  -0.00000  -0.00002
   6        3S          0.02017   0.00153  -0.00001   0.00189   0.23496
   7        3PX         0.00043  -0.00272   0.00000  -0.00097  -0.04919
   8        3PY        -0.00103   0.00065   0.00000   0.00051   0.02888
   9        3PZ         0.00000  -0.00000   0.00230   0.00000  -0.00004
  10        4S         -0.00346   0.00167  -0.00000   0.00377   0.12340
  11        4PX         0.00212  -0.00226  -0.00001   0.00567  -0.01439
  12        4PY        -0.00094  -0.00022  -0.00002   0.00909   0.01009
  13        4PZ         0.00000   0.00000  -0.00670  -0.00000  -0.00001
  14        5S         -0.00567  -0.00710  -0.00002   0.04929  -0.00006
  15        5PX        -0.00035   0.00062   0.00001  -0.01404   0.00413
  16        5PY         0.00026  -0.00140  -0.00000   0.00241  -0.00489
  17        5PZ        -0.00000   0.00000  -0.00054   0.00000   0.00001
  18        6D 0        0.00013   0.00011  -0.00000  -0.00026  -0.00280
  19        6D+1        0.00000   0.00000   0.00011  -0.00000   0.00000
  20        6D-1        0.00000   0.00000   0.00031   0.00000  -0.00000
  21        6D+2        0.00013   0.00000  -0.00000   0.00048   0.00191
  22        6D-2       -0.00018  -0.00039   0.00000   0.00027  -0.00376
  23        7D 0        0.00302  -0.00297   0.00000   0.00135  -0.00726
  24        7D+1        0.00000  -0.00001  -0.00319  -0.00000  -0.00000
  25        7D-1        0.00001  -0.00000  -0.00189  -0.00001  -0.00002
  26        7D+2       -0.00018   0.00215   0.00001  -0.00420   0.00216
  27        7D-2       -0.00053   0.00194  -0.00000  -0.00278  -0.00311
  28 2   H  1S          0.00018   0.00039   0.00007  -0.00054   0.03144
  29        2S         -0.00591   0.00230  -0.00155   0.00097   0.03909
  30        3S          0.00318  -0.00130  -0.00368  -0.00097  -0.00812
  31        4PX         0.00115  -0.00025  -0.00068  -0.00024  -0.00391
  32        4PY        -0.00103   0.00026  -0.00039   0.00007   0.00304
  33        4PZ        -0.00206   0.00032  -0.00001   0.00007   0.00582
  34 3   H  1S          0.00018   0.00039  -0.00007  -0.00054   0.03144
  35        2S         -0.00591   0.00231   0.00155   0.00097   0.03908
  36        3S          0.00318  -0.00130   0.00367  -0.00098  -0.00813
  37        4PX         0.00115  -0.00025   0.00069  -0.00024  -0.00391
  38        4PY        -0.00102   0.00026   0.00040   0.00007   0.00301
  39        4PZ         0.00207  -0.00032  -0.00002  -0.00007  -0.00583
  40 4   C  1S         -0.01102  -0.00574   0.00000  -0.00011  -0.08924
  41        2S         -0.00913  -0.00864   0.00000  -0.00014  -0.13810
  42        2PX         0.00048  -0.00519   0.00000  -0.00178  -0.00478
  43        2PY        -0.00034  -0.00305   0.00000   0.00251  -0.02031
  44        2PZ         0.00000   0.00000   0.00266  -0.00000   0.00003
  45        3S          0.00093   0.01742  -0.00000   0.00041   0.36021
  46        3PX        -0.00052  -0.01556   0.00000  -0.00198  -0.00764
  47        3PY         0.00074  -0.00997   0.00001   0.00429  -0.03881
  48        3PZ        -0.00000   0.00001   0.00708   0.00000   0.00005
  49        4S         -0.00196   0.05561  -0.00001   0.00092   0.17555
  50        4PX        -0.00112  -0.02591   0.00002  -0.02091  -0.00250
  51        4PY         0.00258  -0.01493   0.00004   0.00713  -0.01403
  52        4PZ        -0.00001   0.00002   0.02922   0.00002   0.00002
  53        5S          0.00439  -0.06616   0.00012  -0.08640   0.08643
  54        5PX         0.00192   0.02318  -0.00002   0.00128  -0.01942
  55        5PY        -0.00132   0.00876  -0.00003   0.01575  -0.00653
  56        5PZ         0.00000  -0.00001  -0.00420  -0.00003   0.00001
  57        6D 0       -0.00002  -0.00093   0.00000  -0.00046  -0.00311
  58        6D+1        0.00000  -0.00000  -0.00045   0.00000   0.00000
  59        6D-1        0.00000  -0.00000  -0.00111  -0.00000  -0.00000
  60        6D+2       -0.00003   0.00061   0.00000   0.00103   0.00239
  61        6D-2       -0.00024   0.00113   0.00000  -0.00092  -0.00018
  62        7D 0        0.00102  -0.00345  -0.00002   0.00159  -0.00799
  63        7D+1       -0.00000  -0.00001  -0.00496  -0.00001   0.00000
  64        7D-1       -0.00000  -0.00000   0.00615   0.00002  -0.00001
  65        7D+2       -0.00048   0.00435  -0.00001  -0.00006   0.00355
  66        7D-2        0.00251   0.00655  -0.00001   0.00151  -0.00026
  67 5   H  1S         -0.00009   0.00162  -0.00071   0.00050   0.05610
  68        2S         -0.00070   0.00234   0.01084  -0.00067   0.07102
  69        3S         -0.00104  -0.00133   0.00134   0.00644  -0.01262
  70        4PX        -0.00008  -0.00083   0.00061  -0.00078   0.00001
  71        4PY         0.00007  -0.00091   0.00001  -0.00005  -0.00853
  72        4PZ        -0.00018   0.00109   0.00110   0.00042   0.01027
  73 6   H  1S         -0.00009   0.00162   0.00071   0.00050   0.05610
  74        2S         -0.00070   0.00234  -0.01083  -0.00071   0.07101
  75        3S         -0.00104  -0.00132  -0.00136   0.00644  -0.01262
  76        4PX        -0.00008  -0.00083  -0.00061  -0.00078   0.00001
  77        4PY         0.00007  -0.00091  -0.00001  -0.00005  -0.00856
  78        4PZ         0.00018  -0.00108   0.00111  -0.00042  -0.01025
  79 7   C  1S          0.00002  -0.05573   0.00000  -0.00000  -0.04482
  80        2S          0.00012  -0.08543   0.00000  -0.00000  -0.07040
  81        2PX         0.00016  -0.02830   0.00003  -0.03529   0.05875
  82        2PY        -0.00009  -0.01674   0.00005   0.06088   0.03305
  83        2PZ         0.00000   0.00003   0.07079  -0.00003  -0.00005
  84        3S         -0.00115   0.23894  -0.00000   0.00000   0.20326
  85        3PX        -0.00130  -0.03443   0.00004  -0.04462   0.08720
  86        3PY         0.00018  -0.02066   0.00006   0.07405   0.04862
  87        3PZ        -0.00000   0.00003   0.08632  -0.00003  -0.00007
  88        4S          0.00221  -0.14465   0.00002  -0.01332   0.10726
  89        4PX         0.00302   0.00984  -0.00002   0.01652   0.03350
  90        4PY         0.00063   0.01016  -0.00000  -0.03019   0.01851
  91        4PZ        -0.00000  -0.00001  -0.02328   0.00003  -0.00003
  92        5S          0.00089   0.08506  -0.00008   0.02945  -0.07497
  93        5PX        -0.00000   0.02202  -0.00002   0.00261  -0.00577
  94        5PY         0.00049   0.01523  -0.00000   0.00687  -0.00492
  95        5PZ         0.00000  -0.00002   0.00552  -0.00000   0.00000
  96        6D 0        0.00024   0.00309   0.00006  -0.01222  -0.00305
  97        6D+1        0.00000   0.00001  -0.00321   0.00002  -0.00001
  98        6D-1        0.00000   0.00000  -0.01825  -0.00004  -0.00000
  99        6D+2       -0.00016  -0.00261   0.00002   0.00699   0.00257
 100        6D-2       -0.00000  -0.00452   0.00001  -0.01209   0.00408
 101        7D 0       -0.00152   0.00097   0.00003  -0.00301  -0.00300
 102        7D+1        0.00000   0.00000  -0.00379   0.00000  -0.00001
 103        7D-1       -0.00000   0.00000  -0.00868  -0.00001   0.00000
 104        7D+2        0.00041  -0.00081   0.00001   0.00272   0.00371
 105        7D-2       -0.00078  -0.00219  -0.00000  -0.00360   0.00732
 106 8   F  1S          0.00000  -0.06421   0.00011  -0.10213   0.01633
 107        2S         -0.00000  -0.10357   0.00018  -0.16524   0.02671
 108        2PX         0.00004   0.02333  -0.00003   0.02655   0.03053
 109        2PY        -0.00003  -0.02078   0.00003  -0.01728  -0.00311
 110        2PZ         0.00000   0.00004   0.00634   0.00004   0.00001
 111        3S          0.00010   0.30227  -0.00053   0.48968  -0.08322
 112        3PX        -0.00015   0.03740  -0.00005   0.04389   0.04364
 113        3PY         0.00013  -0.03321   0.00005  -0.02930  -0.00431
 114        3PZ        -0.00000   0.00006   0.00959   0.00006   0.00001
 115        4S         -0.00154   0.25958  -0.00044   0.40046  -0.07409
 116        4PX        -0.00068   0.03675  -0.00004   0.03883   0.03193
 117        4PY         0.00032  -0.03187   0.00004  -0.02486  -0.00169
 118        4PZ        -0.00000   0.00006   0.00737   0.00005   0.00001
 119        5S          0.00128   0.00666   0.00002  -0.01844  -0.00501
 120        5PX         0.00040  -0.00203   0.00001  -0.00795  -0.00706
 121        5PY        -0.00063  -0.00408   0.00000   0.01076  -0.00221
 122        5PZ         0.00000   0.00001   0.00813  -0.00001   0.00000
 123        6D 0       -0.00002  -0.00081   0.00000  -0.00101  -0.00036
 124        6D+1        0.00000   0.00000   0.00036   0.00000   0.00000
 125        6D-1       -0.00000  -0.00000  -0.00052  -0.00000   0.00000
 126        6D+2       -0.00000   0.00016   0.00000   0.00063   0.00070
 127        6D-2       -0.00001  -0.00152   0.00000  -0.00156  -0.00037
 128        7D 0        0.00014  -0.00540   0.00001  -0.00639  -0.00162
 129        7D+1       -0.00000   0.00002   0.00114   0.00002   0.00000
 130        7D-1        0.00000  -0.00001  -0.00063  -0.00001   0.00000
 131        7D+2       -0.00001   0.00170  -0.00000   0.00325   0.00377
 132        7D-2        0.00013  -0.00919   0.00001  -0.01065  -0.00123
 133 9   F  1S         -0.00000  -0.06449   0.08825   0.05094   0.01735
 134        2S         -0.00002  -0.10402   0.14280   0.08242   0.02838
 135        2PX        -0.00002   0.00081  -0.00294  -0.00496   0.01817
 136        2PY        -0.00001   0.01784  -0.01924  -0.00560   0.02080
 137        2PZ        -0.00002   0.02588  -0.01969  -0.01503   0.01652
 138        3S          0.00014   0.30332  -0.42351  -0.24405  -0.08837
 139        3PX         0.00010   0.00118  -0.00468  -0.00727   0.02615
 140        3PY         0.00004   0.02856  -0.03159  -0.00997   0.02956
 141        3PZ         0.00013   0.04136  -0.03327  -0.02464   0.02324
 142        4S          0.00014   0.26275  -0.34167  -0.20031  -0.08015
 143        4PX        -0.00049   0.00263  -0.00502  -0.00807   0.01956
 144        4PY         0.00035   0.02852  -0.02587  -0.00901   0.02028
 145        4PZ        -0.00030   0.04088  -0.02667  -0.02131   0.01543
 146        5S         -0.00042   0.01031   0.02596   0.01390  -0.00941
 147        5PX         0.00006  -0.00480   0.00082  -0.00249  -0.00732
 148        5PY        -0.00028  -0.00062   0.00511   0.01077  -0.00560
 149        5PZ         0.00030   0.00336   0.01525   0.00353  -0.00336
 150        6D 0        0.00002   0.00092  -0.00049  -0.00081   0.00002
 151        6D+1        0.00002   0.00007  -0.00021  -0.00032   0.00049
 152        6D-1       -0.00001   0.00139  -0.00155  -0.00060   0.00061
 153        6D+2        0.00002  -0.00053   0.00060   0.00015  -0.00020
 154        6D-2       -0.00000  -0.00002  -0.00014  -0.00031   0.00044
 155        7D 0       -0.00009   0.00540  -0.00443  -0.00372  -0.00027
 156        7D+1       -0.00010   0.00089  -0.00145  -0.00151   0.00261
 157        7D-1        0.00005   0.00885  -0.00915  -0.00494   0.00225
 158        7D+2       -0.00011  -0.00311   0.00368   0.00127  -0.00085
 159        7D-2        0.00001   0.00064  -0.00122  -0.00098   0.00232
 160 10  F  1S         -0.00000  -0.06449  -0.08836   0.05075   0.01735
 161        2S         -0.00002  -0.10402  -0.14298   0.08211   0.02838
 162        2PX        -0.00002   0.00081   0.00296  -0.00496   0.01817
 163        2PY        -0.00001   0.01776   0.01919  -0.00551   0.02075
 164        2PZ         0.00002  -0.02593  -0.01978   0.01501  -0.01658
 165        3S          0.00014   0.30333   0.42402  -0.24313  -0.08837
 166        3PX         0.00010   0.00119   0.00471  -0.00727   0.02616
 167        3PY         0.00004   0.02842   0.03150  -0.00982   0.02948
 168        3PZ        -0.00013  -0.04145  -0.03343   0.02460  -0.02333
 169        4S          0.00014   0.26276   0.34209  -0.19957  -0.08014
 170        4PX        -0.00049   0.00264   0.00504  -0.00807   0.01956
 171        4PY         0.00036   0.02838   0.02580  -0.00888   0.02023
 172        4PZ         0.00030  -0.04097  -0.02680   0.02128  -0.01549
 173        5S         -0.00042   0.01031  -0.02599   0.01382  -0.00942
 174        5PX         0.00006  -0.00480  -0.00082  -0.00249  -0.00733
 175        5PY        -0.00028  -0.00063  -0.00508   0.01074  -0.00560
 176        5PZ        -0.00030  -0.00336   0.01528  -0.00353   0.00339
 177        6D 0        0.00002   0.00092   0.00050  -0.00081   0.00002
 178        6D+1       -0.00002  -0.00007  -0.00021   0.00032  -0.00049
 179        6D-1        0.00001  -0.00139  -0.00155   0.00059  -0.00061
 180        6D+2        0.00002  -0.00052  -0.00059   0.00015  -0.00020
 181        6D-2       -0.00000  -0.00002   0.00014  -0.00031   0.00044
 182        7D 0       -0.00009   0.00545   0.00449  -0.00374  -0.00025
 183        7D+1        0.00010  -0.00089  -0.00146   0.00151  -0.00262
 184        7D-1       -0.00005  -0.00883  -0.00915   0.00491  -0.00225
 185        7D+2       -0.00011  -0.00308  -0.00365   0.00125  -0.00085
 186        7D-2        0.00002   0.00064   0.00121  -0.00098   0.00232
                          11        12        13        14        15
                           O         O         O         O         O
     Eigenvalues --    -0.71411  -0.65204  -0.60472  -0.60148  -0.55327
   1 1   C  1S          0.06791  -0.06463  -0.00000  -0.01584   0.01852
   2        2S          0.10623  -0.10138  -0.00000  -0.02520   0.02898
   3        2PX        -0.00036   0.02765   0.00001   0.02108  -0.03274
   4        2PY        -0.00378  -0.02334   0.00002  -0.00190   0.06084
   5        2PZ         0.00000   0.00004   0.01176   0.00001  -0.00005
   6        3S         -0.28558   0.27573   0.00000   0.07314  -0.07817
   7        3PX         0.00271   0.03544   0.00001   0.02909  -0.04219
   8        3PY        -0.01003  -0.02952   0.00003  -0.00108   0.08907
   9        3PZ         0.00001   0.00004   0.01776   0.00001  -0.00008
  10        4S         -0.17558   0.17632   0.00002   0.03849  -0.05794
  11        4PX         0.00096   0.02420  -0.00002   0.03013  -0.02235
  12        4PY        -0.00323  -0.02014  -0.00002   0.00021   0.05102
  13        4PZ         0.00001   0.00003  -0.00791   0.00001  -0.00006
  14        5S          0.00208   0.10917   0.00005  -0.17176  -0.03957
  15        5PX        -0.00569  -0.02125  -0.00002   0.04107   0.00816
  16        5PY         0.00076   0.00774  -0.00001  -0.01963  -0.00680
  17        5PZ         0.00000  -0.00001  -0.00947   0.00003   0.00001
  18        6D 0       -0.00029   0.00302   0.00000   0.00108  -0.00421
  19        6D+1       -0.00000   0.00000  -0.00063   0.00000   0.00000
  20        6D-1       -0.00000   0.00001   0.00014   0.00000  -0.00002
  21        6D+2        0.00046  -0.00034   0.00000  -0.00094  -0.00198
  22        6D-2        0.00196   0.00072  -0.00000  -0.00012  -0.00370
  23        7D 0        0.00414  -0.00255  -0.00001   0.00444   0.00089
  24        7D+1        0.00001  -0.00002  -0.00580   0.00000   0.00001
  25        7D-1        0.00002  -0.00002   0.00534   0.00000   0.00000
  26        7D+2        0.00214  -0.00198  -0.00001  -0.00579  -0.00555
  27        7D-2       -0.00129   0.00706  -0.00001  -0.00046  -0.01068
  28 2   H  1S         -0.05441   0.06737  -0.00592   0.02042  -0.04137
  29        2S         -0.06602   0.08696  -0.01569   0.02465  -0.05773
  30        3S         -0.00252  -0.00437  -0.00776   0.00677  -0.00402
  31        4PX         0.00422  -0.00417   0.00055  -0.00045   0.00217
  32        4PY        -0.00388   0.00372  -0.00034   0.00117   0.00022
  33        4PZ        -0.00914   0.01111  -0.00141   0.00323  -0.00686
  34 3   H  1S         -0.05441   0.06737   0.00592   0.02044  -0.04129
  35        2S         -0.06603   0.08697   0.01569   0.02467  -0.05760
  36        3S         -0.00252  -0.00437   0.00779   0.00676  -0.00401
  37        4PX         0.00424  -0.00419  -0.00055  -0.00046   0.00218
  38        4PY        -0.00384   0.00367   0.00033   0.00116   0.00026
  39        4PZ         0.00915  -0.01112  -0.00141  -0.00323   0.00685
  40 4   C  1S          0.00798   0.04305  -0.00000   0.00264  -0.04120
  41        2S          0.01231   0.06717  -0.00000   0.00416  -0.06481
  42        2PX        -0.06648   0.05142   0.00000   0.00875   0.06813
  43        2PY         0.00287  -0.03708   0.00006   0.02850   0.08415
  44        2PZ        -0.00000   0.00005   0.04092  -0.00005  -0.00010
  45        3S         -0.03128  -0.18141   0.00000  -0.01233   0.17548
  46        3PX        -0.10091   0.07236  -0.00000   0.01322   0.10034
  47        3PY         0.00200  -0.05074   0.00009   0.04183   0.11465
  48        3PZ        -0.00000   0.00007   0.06010  -0.00006  -0.00014
  49        4S         -0.01673  -0.08985  -0.00002   0.00948   0.10625
  50        4PX        -0.04188   0.03350   0.00000   0.00131   0.05146
  51        4PY        -0.00126  -0.04211   0.00008   0.02308   0.07197
  52        4PZ        -0.00001   0.00006   0.04632  -0.00004  -0.00009
  53        5S          0.07910   0.00515  -0.00016   0.22607   0.14503
  54        5PX        -0.01515  -0.03734   0.00001   0.02197  -0.01626
  55        5PY        -0.01086   0.00114   0.00005  -0.04006  -0.00517
  56        5PZ         0.00001   0.00000   0.01417   0.00005   0.00000
  57        6D 0       -0.00031  -0.00268   0.00000   0.00090   0.00629
  58        6D+1       -0.00001   0.00000  -0.00279   0.00001   0.00001
  59        6D-1        0.00000  -0.00001  -0.00033   0.00001   0.00001
  60        6D+2        0.00102   0.00040   0.00000   0.00254  -0.00365
  61        6D-2        0.00764  -0.00387  -0.00000  -0.00338  -0.00576
  62        7D 0       -0.00247  -0.00383  -0.00000   0.00269   0.00094
  63        7D+1       -0.00002   0.00001  -0.00996   0.00001   0.00001
  64        7D-1       -0.00001  -0.00000   0.00178   0.00002  -0.00000
  65        7D+2        0.00239   0.00090  -0.00000   0.00733  -0.00121
  66        7D-2        0.01270  -0.00406  -0.00002  -0.00400  -0.00440
  67 5   H  1S         -0.00517  -0.05278  -0.02269   0.00869   0.07570
  68        2S         -0.00329  -0.06641  -0.02475   0.01202   0.10661
  69        3S         -0.00200   0.00484  -0.00038  -0.00961   0.01504
  70        4PX        -0.00333   0.00286   0.00089  -0.00024   0.00506
  71        4PY         0.00013   0.00459   0.00330   0.00047  -0.00395
  72        4PZ        -0.00037  -0.00813  -0.00089   0.00161   0.01194
  73 6   H  1S         -0.00517  -0.05278   0.02269   0.00868   0.07571
  74        2S         -0.00328  -0.06641   0.02476   0.01200   0.10664
  75        3S         -0.00199   0.00485   0.00039  -0.00959   0.01504
  76        4PX        -0.00333   0.00286  -0.00088  -0.00024   0.00507
  77        4PY         0.00013   0.00462  -0.00330   0.00047  -0.00399
  78        4PZ         0.00037   0.00812  -0.00088  -0.00161  -0.01194
  79 7   C  1S         -0.07184  -0.02289   0.00000   0.00223   0.02000
  80        2S         -0.11414  -0.03698   0.00000   0.00344   0.03184
  81        2PX        -0.00901  -0.07652  -0.00002  -0.10860  -0.08170
  82        2PY         0.00568  -0.08080   0.00024   0.11414  -0.07251
  83        2PZ        -0.00001   0.00012   0.15731  -0.00019   0.00010
  84        3S          0.34720   0.12240  -0.00000  -0.00952  -0.09695
  85        3PX        -0.01566  -0.11545  -0.00002  -0.16390  -0.12699
  86        3PY         0.00773  -0.12113   0.00036   0.16951  -0.11086
  87        3PZ        -0.00001   0.00017   0.23485  -0.00028   0.00015
  88        4S          0.11956  -0.02023   0.00001  -0.02120  -0.07671
  89        4PX         0.01506  -0.04050  -0.00001  -0.04473  -0.03327
  90        4PY         0.01387  -0.03400   0.00013   0.03777  -0.04384
  91        4PZ        -0.00001   0.00005   0.06981  -0.00006   0.00006
  92        5S         -0.11251  -0.14489   0.00009  -0.03891  -0.11974
  93        5PX        -0.01896  -0.04537   0.00002  -0.00449  -0.04764
  94        5PY        -0.00754  -0.01686   0.00000  -0.01754  -0.03395
  95        5PZ         0.00001   0.00002  -0.00796   0.00003   0.00005
  96        6D 0        0.00031   0.00256   0.00004  -0.00688  -0.00145
  97        6D+1        0.00000   0.00000  -0.00586   0.00002  -0.00001
  98        6D-1       -0.00000   0.00000  -0.01261  -0.00001  -0.00000
  99        6D+2       -0.00090  -0.00117   0.00002   0.00854  -0.00088
 100        6D-2        0.00008  -0.00256  -0.00001  -0.00960   0.00744
 101        7D 0        0.00038  -0.00169   0.00001  -0.00020  -0.00756
 102        7D+1       -0.00000   0.00001  -0.00907   0.00001  -0.00003
 103        7D-1       -0.00000   0.00000  -0.00535   0.00002  -0.00001
 104        7D+2       -0.00322   0.00391   0.00001   0.01119   0.00261
 105        7D-2        0.00334  -0.00551  -0.00001  -0.00408   0.02192
 106 8   F  1S          0.03019   0.00782  -0.00000   0.02835  -0.00119
 107        2S          0.04947   0.01279  -0.00000   0.04646  -0.00193
 108        2PX         0.08083   0.00107  -0.00003   0.15381  -0.07872
 109        2PY        -0.05950  -0.07247   0.00016  -0.11921  -0.06249
 110        2PZ         0.00011   0.00012   0.09184   0.00022   0.00008
 111        3S         -0.15554  -0.03989   0.00001  -0.14635   0.00573
 112        3PX         0.11651   0.00208  -0.00004   0.22245  -0.11420
 113        3PY        -0.08566  -0.10465   0.00023  -0.17236  -0.08928
 114        3PZ         0.00016   0.00017   0.13318   0.00032   0.00012
 115        4S         -0.14548  -0.04022   0.00001  -0.15942   0.01423
 116        4PX         0.08486  -0.00096  -0.00004   0.16540  -0.08974
 117        4PY        -0.06460  -0.08214   0.00018  -0.12632  -0.07905
 118        4PZ         0.00012   0.00013   0.10511   0.00024   0.00011
 119        5S         -0.00657   0.01500  -0.00002  -0.02846   0.02684
 120        5PX        -0.00274   0.00955  -0.00001   0.00821   0.00453
 121        5PY        -0.00232  -0.00140   0.00002  -0.00816  -0.00634
 122        5PZ         0.00000   0.00001   0.00757   0.00002   0.00001
 123        6D 0       -0.00124  -0.00053   0.00000  -0.00217   0.00014
 124        6D+1        0.00000   0.00000   0.00155   0.00001  -0.00000
 125        6D-1       -0.00000  -0.00000  -0.00143  -0.00001  -0.00000
 126        6D+2        0.00057  -0.00109   0.00000   0.00091  -0.00170
 127        6D-2       -0.00209  -0.00131   0.00000  -0.00363   0.00002
 128        7D 0       -0.00504  -0.00200   0.00002  -0.00654   0.00103
 129        7D+1        0.00001   0.00001   0.00891   0.00002  -0.00000
 130        7D-1       -0.00001  -0.00002  -0.00548  -0.00001  -0.00001
 131        7D+2        0.00259  -0.00624   0.00001   0.00395  -0.01061
 132        7D-2       -0.00775  -0.00578   0.00002  -0.01170   0.00015
 133 9   F  1S          0.02627   0.01828  -0.02418  -0.01168   0.00258
 134        2S          0.04303   0.02996  -0.03962  -0.01914   0.00419
 135        2PX         0.00320  -0.02294  -0.01338  -0.07080  -0.09102
 136        2PY         0.05492   0.02942  -0.13526   0.00173  -0.02739
 137        2PZ         0.07123   0.09258  -0.09822  -0.09282   0.06207
 138        3S         -0.13514  -0.09443   0.12462   0.06052  -0.01235
 139        3PX         0.00468  -0.03299  -0.01927  -0.10210  -0.13052
 140        3PY         0.07922   0.04258  -0.19576   0.00264  -0.03970
 141        3PZ         0.10275   0.13353  -0.14210  -0.13427   0.08928
 142        4S         -0.12801  -0.09076   0.13909   0.06633  -0.01931
 143        4PX         0.00258  -0.02768  -0.01519  -0.08361  -0.11137
 144        4PY         0.05845   0.03057  -0.14643   0.00578  -0.03455
 145        4PZ         0.07560   0.10380  -0.09965  -0.10147   0.07076
 146        5S         -0.00167   0.00873   0.03358   0.00916   0.00949
 147        5PX        -0.00318   0.00446   0.00135  -0.00134   0.00080
 148        5PY        -0.00199   0.00382  -0.00559   0.00309   0.00498
 149        5PZ         0.00075   0.00391  -0.00551  -0.00511   0.00845
 150        6D 0        0.00107   0.00170  -0.00071  -0.00181   0.00128
 151        6D+1        0.00014  -0.00032  -0.00034  -0.00132  -0.00109
 152        6D-1        0.00185   0.00160  -0.00332  -0.00087   0.00031
 153        6D+2       -0.00074  -0.00034   0.00155  -0.00016   0.00013
 154        6D-2        0.00011  -0.00036  -0.00031  -0.00095  -0.00077
 155        7D 0        0.00371   0.00736  -0.00036  -0.00675   0.00614
 156        7D+1        0.00087  -0.00228  -0.00166  -0.00773  -0.00716
 157        7D-1        0.00758   0.00544  -0.01079  -0.00265  -0.00039
 158        7D+2       -0.00294  -0.00051   0.00669  -0.00245   0.00128
 159        7D-2        0.00087  -0.00238  -0.00194  -0.00422  -0.00584
 160 10  F  1S          0.02627   0.01828   0.02418  -0.01167   0.00258
 161        2S          0.04304   0.02996   0.03963  -0.01914   0.00419
 162        2PX         0.00323  -0.02293   0.01341  -0.07083  -0.09098
 163        2PY         0.05469   0.02910   0.13494   0.00206  -0.02761
 164        2PZ        -0.07141  -0.09267  -0.09868   0.09278  -0.06198
 165        3S         -0.13515  -0.09442  -0.12464   0.06050  -0.01235
 166        3PX         0.00472  -0.03297   0.01931  -0.10213  -0.13046
 167        3PY         0.07889   0.04213   0.19529   0.00311  -0.04002
 168        3PZ        -0.10301  -0.13367  -0.14277   0.13421  -0.08916
 169        4S         -0.12802  -0.09074  -0.13911   0.06630  -0.01930
 170        4PX         0.00260  -0.02766   0.01523  -0.08363  -0.11133
 171        4PY         0.05820   0.03022   0.14610   0.00614  -0.03479
 172        4PZ        -0.07579  -0.10390  -0.10015   0.10141  -0.07066
 173        5S         -0.00168   0.00872  -0.03357   0.00915   0.00952
 174        5PX        -0.00318   0.00446  -0.00135  -0.00134   0.00081
 175        5PY        -0.00200   0.00380   0.00558   0.00311   0.00496
 176        5PZ        -0.00074  -0.00391  -0.00553   0.00510  -0.00847
 177        6D 0        0.00108   0.00171   0.00073  -0.00182   0.00128
 178        6D+1       -0.00014   0.00032  -0.00034   0.00133   0.00109
 179        6D-1       -0.00185  -0.00159  -0.00332   0.00085  -0.00030
 180        6D+2       -0.00073  -0.00033  -0.00153  -0.00017   0.00013
 181        6D-2        0.00011  -0.00036   0.00031  -0.00095  -0.00077
 182        7D 0        0.00376   0.00739   0.00042  -0.00676   0.00614
 183        7D+1       -0.00088   0.00229  -0.00167   0.00775   0.00718
 184        7D-1       -0.00757  -0.00540  -0.01081   0.00260   0.00043
 185        7D+2       -0.00291  -0.00049  -0.00666  -0.00247   0.00128
 186        7D-2        0.00087  -0.00237   0.00193  -0.00419  -0.00582
                          16        17        18        19        20
                           O         O         O         O         O
     Eigenvalues --    -0.49626  -0.47960  -0.47427  -0.45148  -0.43698
   1 1   C  1S         -0.00000   0.00186   0.00000  -0.00284  -0.00000
   2        2S         -0.00001   0.00289   0.00000  -0.00411  -0.00001
   3        2PX         0.00009  -0.02948   0.00004   0.09889  -0.00003
   4        2PY         0.00023   0.01894   0.00011  -0.04375  -0.00022
   5        2PZ         0.12903  -0.00004   0.05781   0.00009  -0.08567
   6        3S          0.00001  -0.00642  -0.00001   0.00736   0.00002
   7        3PX         0.00013  -0.03999   0.00006   0.14886  -0.00003
   8        3PY         0.00031   0.02239   0.00014  -0.06151  -0.00030
   9        3PZ         0.17806  -0.00004   0.07784   0.00012  -0.11761
  10        4S          0.00001  -0.04528   0.00001   0.01477   0.00003
  11        4PX         0.00009  -0.00880   0.00001   0.09193  -0.00001
  12        4PY         0.00020   0.00457   0.00009  -0.02898  -0.00018
  13        4PZ         0.11533  -0.00001   0.04216   0.00005  -0.07168
  14        5S          0.00004  -0.21699  -0.00009  -0.03132   0.00002
  15        5PX         0.00000   0.03659   0.00002   0.01404  -0.00000
  16        5PY         0.00003  -0.03486  -0.00000  -0.00608  -0.00003
  17        5PZ         0.01080   0.00004   0.00327   0.00002  -0.01113
  18        6D 0        0.00001  -0.00220   0.00000   0.00676  -0.00001
  19        6D+1        0.00210  -0.00000   0.00114   0.00001  -0.00381
  20        6D-1       -0.00221  -0.00001  -0.00136   0.00001   0.00330
  21        6D+2        0.00001   0.00097   0.00001  -0.00340  -0.00001
  22        6D-2        0.00001  -0.00104   0.00000   0.00307  -0.00001
  23        7D 0       -0.00001   0.00214  -0.00002   0.00551   0.00002
  24        7D+1       -0.01098   0.00001   0.00098   0.00001   0.00107
  25        7D-1        0.00528   0.00000   0.00752   0.00000  -0.00560
  26        7D+2       -0.00001   0.00352  -0.00001  -0.00676   0.00001
  27        7D-2       -0.00001   0.00071   0.00000   0.00172  -0.00000
  28 2   H  1S         -0.08184  -0.01588  -0.03732   0.04618   0.05983
  29        2S         -0.11310  -0.02174  -0.05536   0.06295   0.08907
  30        3S         -0.01869  -0.00490  -0.01148   0.02306   0.02444
  31        4PX         0.00586  -0.00033   0.00346   0.00209  -0.00394
  32        4PY        -0.00522  -0.00047  -0.00176   0.00075   0.00308
  33        4PZ        -0.00751  -0.00237  -0.00365   0.00626   0.00576
  34 3   H  1S          0.08188  -0.01590   0.03733   0.04626  -0.05979
  35        2S          0.11315  -0.02180   0.05537   0.06307  -0.08902
  36        3S          0.01867  -0.00490   0.01155   0.02310  -0.02445
  37        4PX        -0.00587  -0.00033  -0.00347   0.00207   0.00396
  38        4PY         0.00519  -0.00046   0.00174   0.00073  -0.00305
  39        4PZ        -0.00753   0.00238  -0.00366  -0.00627   0.00576
  40 4   C  1S          0.00001  -0.00340   0.00000   0.00920  -0.00000
  41        2S          0.00002  -0.00540   0.00000   0.01493  -0.00000
  42        2PX        -0.00001   0.02103  -0.00001  -0.05117  -0.00004
  43        2PY         0.00019  -0.03099   0.00009   0.09201  -0.00001
  44        2PZ         0.13063   0.00005   0.05252  -0.00020  -0.01064
  45        3S         -0.00005   0.01404  -0.00001  -0.04655   0.00001
  46        3PX        -0.00002   0.02982  -0.00001  -0.07308  -0.00006
  47        3PY         0.00027  -0.04454   0.00013   0.12982  -0.00002
  48        3PZ         0.17930   0.00007   0.07144  -0.00027  -0.02413
  49        4S         -0.00000   0.03720  -0.00002  -0.00818  -0.00002
  50        4PX        -0.00001   0.02966  -0.00002  -0.04308  -0.00002
  51        4PY         0.00011  -0.03507   0.00008   0.07008  -0.00002
  52        4PZ         0.08821   0.00003   0.03454  -0.00015  -0.01808
  53        5S          0.00009   0.20311  -0.00016   0.05259   0.00012
  54        5PX        -0.00004   0.08613   0.00006  -0.00034  -0.00003
  55        5PY        -0.00001  -0.06053   0.00002  -0.00824  -0.00001
  56        5PZ         0.01186   0.00008  -0.01186   0.00000   0.00263
  57        6D 0       -0.00001  -0.00036  -0.00001   0.00559   0.00000
  58        6D+1        0.00158  -0.00000   0.00149  -0.00000  -0.00366
  59        6D-1        0.00475  -0.00000   0.00441   0.00001  -0.00029
  60        6D+2       -0.00000  -0.00091  -0.00001  -0.00106  -0.00000
  61        6D-2        0.00001   0.00036   0.00000   0.00358  -0.00000
  62        7D 0        0.00000  -0.00432   0.00003  -0.00129   0.00001
  63        7D+1        0.01073   0.00001  -0.00057   0.00001   0.00312
  64        7D-1       -0.00212  -0.00000  -0.01055  -0.00000  -0.00376
  65        7D+2        0.00001   0.01044   0.00002  -0.00115  -0.00000
  66        7D-2        0.00002  -0.00628   0.00000  -0.00158   0.00000
  67 5   H  1S         -0.08295  -0.01084  -0.03793   0.03921   0.00577
  68        2S         -0.12360  -0.01142  -0.06538   0.05904  -0.00092
  69        3S         -0.02872  -0.01616  -0.01939   0.01976   0.00308
  70        4PX         0.00008   0.00266  -0.00025  -0.00324   0.00300
  71        4PY         0.01093  -0.00162   0.00431   0.00033   0.00123
  72        4PZ        -0.00522  -0.00197  -0.00412   0.00513  -0.00067
  73 6   H  1S          0.08293  -0.01083   0.03794   0.03911  -0.00576
  74        2S          0.12358  -0.01137   0.06538   0.05888   0.00096
  75        3S          0.02871  -0.01614   0.01940   0.01971  -0.00307
  76        4PX        -0.00008   0.00265   0.00025  -0.00323  -0.00301
  77        4PY        -0.01094  -0.00162  -0.00431   0.00033  -0.00124
  78        4PZ        -0.00518   0.00197  -0.00411  -0.00512  -0.00067
  79 7   C  1S         -0.00001   0.00012  -0.00000   0.00055  -0.00000
  80        2S         -0.00001   0.00020  -0.00000   0.00083   0.00000
  81        2PX         0.00002   0.01308   0.00001   0.00654   0.00002
  82        2PY        -0.00001  -0.02059  -0.00006  -0.02694  -0.00002
  83        2PZ        -0.01160   0.00003  -0.03698   0.00005  -0.01292
  84        3S          0.00004  -0.00078   0.00001  -0.00117  -0.00001
  85        3PX         0.00004   0.01281   0.00001   0.00434   0.00001
  86        3PY        -0.00002  -0.02193  -0.00006  -0.02829  -0.00001
  87        3PZ        -0.01881   0.00003  -0.04062   0.00006  -0.01001
  88        4S         -0.00000  -0.00166   0.00001  -0.02410   0.00003
  89        4PX         0.00000   0.00539  -0.00000  -0.00515   0.00002
  90        4PY         0.00003  -0.01771  -0.00002  -0.00787   0.00003
  91        4PZ         0.01584   0.00004  -0.01263   0.00000   0.01436
  92        5S         -0.00011   0.03193   0.00022  -0.01440  -0.00012
  93        5PX        -0.00002  -0.01765   0.00005  -0.01404  -0.00004
  94        5PY        -0.00001   0.04392   0.00008   0.02306   0.00004
  95        5PZ        -0.00570  -0.00006   0.03632  -0.00005   0.02897
  96        6D 0       -0.00000   0.01779  -0.00006   0.01433  -0.00004
[...]
  17. LP (   1) F   8                /102. RY*(  13) C   7                    0.26    2.84    0.034
  18. LP (   2) F   8                / 92. RY*(   3) C   7                    0.38    1.52    0.031
  18. LP (   2) F   8                / 97. RY*(   8) C   7                    0.38    2.76    0.042
  18. LP (   2) F   8                /180. BD*(   1) C   1 - C   4            0.38    0.85    0.023
  18. LP (   2) F   8                /183. BD*(   1) C   4 - C   7            2.97    0.76    0.060
  18. LP (   2) F   8                /185. BD*(   1) C   7 - F   9            2.26    0.66    0.049
  18. LP (   2) F   8                /186. BD*(   1) C   7 - F  10            2.27    0.66    0.049
  19. LP (   3) F   8                / 90. RY*(   1) C   7                    0.77    1.63    0.045
  19. LP (   3) F   8                / 94. RY*(   5) C   7                    0.28    2.46    0.034
  19. LP (   3) F   8                /185. BD*(   1) C   7 - F   9            5.20    0.66    0.074
  19. LP (   3) F   8                /186. BD*(   1) C   7 - F  10            5.19    0.66    0.074
  20. LP (   1) F   9                / 90. RY*(   1) C   7                    2.95    2.28    0.104
  20. LP (   1) F   9                / 91. RY*(   2) C   7                    1.56    2.27    0.075
  20. LP (   1) F   9                / 92. RY*(   3) C   7                    0.81    2.17    0.053
  20. LP (   1) F   9                / 93. RY*(   4) C   7                    0.32    2.56    0.036
  20. LP (   1) F   9                / 94. RY*(   5) C   7                    0.39    3.11    0.044
  20. LP (   1) F   9                /100. RY*(  11) C   7                    0.29    3.30    0.039
  21. LP (   2) F   9                / 92. RY*(   3) C   7                    0.39    1.52    0.031
  21. LP (   2) F   9                / 96. RY*(   7) C   7                    0.30    2.66    0.036
  21. LP (   2) F   9                /182. BD*(   1) C   4 - H   6            0.36    0.81    0.022
  21. LP (   2) F   9                /183. BD*(   1) C   4 - C   7            3.17    0.76    0.062
  21. LP (   2) F   9                /184. BD*(   1) C   7 - F   8            2.32    0.65    0.050
  21. LP (   2) F   9                /186. BD*(   1) C   7 - F  10            2.16    0.66    0.048
  22. LP (   3) F   9                / 91. RY*(   2) C   7                    0.54    1.62    0.038
  22. LP (   3) F   9                /184. BD*(   1) C   7 - F   8            5.18    0.65    0.074
  22. LP (   3) F   9                /186. BD*(   1) C   7 - F  10            5.35    0.65    0.075
  23. LP (   1) F  10                / 90. RY*(   1) C   7                    2.94    2.28    0.103
  23. LP (   1) F  10                / 91. RY*(   2) C   7                    1.57    2.27    0.075
  23. LP (   1) F  10                / 92. RY*(   3) C   7                    0.81    2.17    0.053
  23. LP (   1) F  10                / 93. RY*(   4) C   7                    0.32    2.56    0.036
  23. LP (   1) F  10                / 94. RY*(   5) C   7                    0.39    3.11    0.044
  23. LP (   1) F  10                /100. RY*(  11) C   7                    0.29    3.30    0.039
  24. LP (   2) F  10                / 92. RY*(   3) C   7                    0.39    1.52    0.031
  24. LP (   2) F  10                / 96. RY*(   7) C   7                    0.30    2.66    0.036
  24. LP (   2) F  10                /181. BD*(   1) C   4 - H   5            0.36    0.81    0.022
  24. LP (   2) F  10                /183. BD*(   1) C   4 - C   7            3.17    0.76    0.062
  24. LP (   2) F  10                /184. BD*(   1) C   7 - F   8            2.32    0.65    0.050
  24. LP (   2) F  10                /185. BD*(   1) C   7 - F   9            2.16    0.66    0.048
  25. LP (   3) F  10                / 91. RY*(   2) C   7                    0.54    1.62    0.038
  25. LP (   3) F  10                /184. BD*(   1) C   7 - F   8            5.18    0.65    0.074
  25. LP (   3) F  10                /185. BD*(   1) C   7 - F   9            5.35    0.65    0.075
 184. BD*(   1) C   7 - F   8        / 95. RY*(   6) C   7                    0.56    1.71    0.178
 184. BD*(   1) C   7 - F   8        /104. RY*(  15) C   7                    0.37    0.81    0.101
 184. BD*(   1) C   7 - F   8        /106. RY*(  17) C   7                    0.33    0.79    0.095
 184. BD*(   1) C   7 - F   8        /180. BD*(   1) C   1 - C   4            0.36    0.20    0.048
 185. BD*(   1) C   7 - F   9        / 94. RY*(   5) C   7                    0.32    1.81    0.138
 185. BD*(   1) C   7 - F   9        /110. RY*(  21) C   7                    0.46    0.85    0.114
 185. BD*(   1) C   7 - F   9        /182. BD*(   1) C   4 - H   6            0.38    0.15    0.042
 186. BD*(   1) C   7 - F  10        / 94. RY*(   5) C   7                    0.32    1.81    0.138
 186. BD*(   1) C   7 - F  10        /110. RY*(  21) C   7                    0.46    0.85    0.114
 186. BD*(   1) C   7 - F  10        /181. BD*(   1) C   4 - H   5            0.38    0.15    0.042


 Natural Bond Orbitals (Summary):

                                                            Principal Delocalizations
           NBO                        Occupancy    Energy   (geminal,vicinal,remote)
 ====================================================================================
 Molecular unit  1  (C3H4F3)
     1. BD (   1) C   1 - H   2          0.99546    -0.53881  182(v),58(v),59(v),181(v)
     2. BD (   1) C   1 - H   3          0.99546    -0.53882  181(v),58(v),182(v),59(v)
     3. BD (   1) C   1 - C   4          0.99338    -0.67063  184(v),181(g),182(g),91(v)
     4. BD (   1) C   4 - H   5          0.98152    -0.53239  186(v),16(v),179(v),184(v)
                                                    92(v)
     5. BD (   1) C   4 - H   6          0.98156    -0.53241  185(v),16(v),178(v),184(v)
                                                    92(v)
     6. BD (   1) C   4 - C   7          0.98419    -0.68153  16(v),112(v),180(g)
     7. BD (   1) C   7 - F   8          0.99733    -1.03414  180(v),185(g),186(g),91(g)
                                                    92(g)
     8. BD (   1) C   7 - F   9          0.99754    -1.03754  186(g),184(g),182(v),90(g)
     9. BD (   1) C   7 - F  10          0.99753    -1.03755  185(g),184(g),181(v),90(g)
    10. CR (   1) C   1                  0.99972   -10.07148  59(v)
    11. CR (   1) C   4                  0.99961   -10.07663  92(v),31(v),98(v)
    12. CR (   1) C   7                  0.99966   -10.34256  183(g),185(g),186(g),184(g)
    13. CR (   1) F   8                  0.99996   -24.45070  91(v),92(v)
    14. CR (   1) F   9                  0.99996   -24.45014  90(v),91(v)
    15. CR (   1) F  10                  0.99996   -24.45013  90(v),91(v)
    16. LP*(   1) C   1                  0.02794    -0.03018   
    17. LP (   1) F   8                  0.99477    -1.09498  91(v),92(v),95(v),102(v)
    18. LP (   2) F   8                  0.97602    -0.44635  183(v),186(v),185(v),97(v)
                                                    180(r),92(v)
    19. LP (   3) F   8                  0.97073    -0.44542  185(v),186(v),90(v),94(v)
    20. LP (   1) F   9                  0.99469    -1.09397  90(v),91(v),92(v),94(v)
                                                    93(v),100(v)
    21. LP (   2) F   9                  0.97761    -0.44611  183(v),184(v),186(v),92(v)
                                                    182(r),96(v)
    22. LP (   3) F   9                  0.96949    -0.44503  186(v),184(v),91(v)
    23. LP (   1) F  10                  0.99469    -1.09397  90(v),91(v),92(v),94(v)
                                                    93(v),100(v)
    24. LP (   2) F  10                  0.97761    -0.44611  183(v),184(v),185(v),92(v)
                                                    181(r),96(v)
    25. LP (   3) F  10                  0.96949    -0.44503  185(v),184(v),91(v)
    26. RY*(   1) C   1                  0.00066     0.59884   
    27. RY*(   2) C   1                  0.00061     1.06664   
    28. RY*(   3) C   1                  0.00025     1.41077   
    29. RY*(   4) C   1                  0.00012     1.02064   
    30. RY*(   5) C   1                  0.00010     0.81796   
    31. RY*(   6) C   1                  0.00009     0.58453   
    32. RY*(   7) C   1                  0.00004     0.59811   
    33. RY*(   8) C   1                  0.00001     0.40417   
    34. RY*(   9) C   1                  0.00000     2.51549   
    35. RY*(  10) C   1                  0.00000     0.99324   
    36. RY*(  11) C   1                  0.00001     0.54282   
    37. RY*(  12) C   1                  0.00000     3.18161   
    38. RY*(  13) C   1                  0.00000     2.52849   
    39. RY*(  14) C   1                  0.00000     3.24755   
    40. RY*(  15) C   1                  0.00001     1.93289   
    41. RY*(  16) C   1                  0.00000     3.06104   
    42. RY*(  17) C   1                  0.00000     1.43455   
    43. RY*(  18) C   1                  0.00000     2.82547   
    44. RY*(  19) C   1                  0.00000    23.11053   
    45. RY*(  20) C   1                  0.00001     2.41523   
    46. RY*(  21) C   1                  0.00001     1.48364   
    47. RY*(  22) C   1                  0.00000     3.26630   
    48. RY*(   1) H   2                  0.00030     0.70803   
    49. RY*(   2) H   2                  0.00007     2.05531   
    50. RY*(   3) H   2                  0.00003     2.23878   
    51. RY*(   4) H   2                  0.00001     2.12076   
    52. RY*(   5) H   2                  0.00001     2.35781   
    53. RY*(   1) H   3                  0.00030     0.70803   
    54. RY*(   2) H   3                  0.00007     2.05536   
    55. RY*(   3) H   3                  0.00003     2.23906   
    56. RY*(   4) H   3                  0.00001     2.11943   
    57. RY*(   5) H   3                  0.00001     2.35886   
    58. RY*(   1) C   4                  0.00199     0.80959   
    59. RY*(   2) C   4                  0.00146     0.78705   
    60. RY*(   3) C   4                  0.00064     0.98868   
    61. RY*(   4) C   4                  0.00041     1.15533   
    62. RY*(   5) C   4                  0.00038     1.05409   
    63. RY*(   6) C   4                  0.00025     1.67472   
    64. RY*(   7) C   4                  0.00015     1.14571   
    65. RY*(   8) C   4                  0.00013     1.02449   
    66. RY*(   9) C   4                  0.00008     1.62060   
    67. RY*(  10) C   4                  0.00005     1.42361   
    68. RY*(  11) C   4                  0.00004     2.46172   
    69. RY*(  12) C   4                  0.00003     0.97293   
    70. RY*(  13) C   4                  0.00000     0.67993   
    71. RY*(  14) C   4                  0.00000     3.26447   
    72. RY*(  15) C   4                  0.00000     2.09355   
    73. RY*(  16) C   4                  0.00000     1.54435   
    74. RY*(  17) C   4                  0.00000     1.70180   
    75. RY*(  18) C   4                  0.00000     3.36315   
    76. RY*(  19) C   4                  0.00000    22.91479   
    77. RY*(  20) C   4                  0.00000     3.17268   
    78. RY*(  21) C   4                  0.00000     2.88163   
    79. RY*(  22) C   4                  0.00000     3.36376   
    80. RY*(   1) H   5                  0.00056     0.79071   
    81. RY*(   2) H   5                  0.00007     2.16441   
    82. RY*(   3) H   5                  0.00005     2.09711   
    83. RY*(   4) H   5                  0.00006     2.01697   
    84. RY*(   5) H   5                  0.00001     2.68240   
    85. RY*(   1) H   6                  0.00056     0.79060   
    86. RY*(   2) H   6                  0.00007     2.16439   
    87. RY*(   3) H   6                  0.00005     2.09722   
    88. RY*(   4) H   6                  0.00006     2.01685   
    89. RY*(   5) H   6                  0.00001     2.68259   
    90. RY*(   1) C   7                  0.00666     1.18653   
    91. RY*(   2) C   7                  0.00664     1.17988   
    92. RY*(   3) C   7                  0.00533     1.07829   
    93. RY*(   4) C   7                  0.00198     1.47064   
    94. RY*(   5) C   7                  0.00172     2.01525   
    95. RY*(   6) C   7                  0.00172     1.91521   
    96. RY*(   7) C   7                  0.00110     2.21079   
    97. RY*(   8) C   7                  0.00102     2.31337   
    98. RY*(   9) C   7                  0.00019     2.97219   
    99. RY*(  10) C   7                  0.00010     0.84728   
   100. RY*(  11) C   7                  0.00002     2.20838   
   101. RY*(  12) C   7                  0.00000    22.01392   
   102. RY*(  13) C   7                  0.00001     1.74933   
   103. RY*(  14) C   7                  0.00000     2.75428   
   104. RY*(  15) C   7                  0.00001     1.01886   
   105. RY*(  16) C   7                  0.00001     1.92282   
   106. RY*(  17) C   7                  0.00001     0.99957   
   107. RY*(  18) C   7                  0.00001     2.74971   
   108. RY*(  19) C   7                  0.00000     3.11375   
   109. RY*(  20) C   7                  0.00000     3.05871   
   110. RY*(  21) C   7                  0.00000     1.06289   
   111. RY*(  22) C   7                  0.00000     2.82093   
   112. RY*(   1) F   8                  0.00075     0.60628   
   113. RY*(   2) F   8                  0.00035     1.85936   
   114. RY*(   3) F   8                  0.00036     0.52744   
   115. RY*(   4) F   8                  0.00007     1.13701   
   116. RY*(   5) F   8                  0.00006     2.27902   
   117. RY*(   6) F   8                  0.00005     2.48989   
   118. RY*(   7) F   8                  0.00003     2.35537   
   119. RY*(   8) F   8                  0.00003     2.45262   
   120. RY*(   9) F   8                  0.00000     5.37649   
   121. RY*(  10) F   8                  0.00000     2.71351   
   122. RY*(  11) F   8                  0.00000     2.34665   
   123. RY*(  12) F   8                  0.00000     5.65920   
   124. RY*(  13) F   8                  0.00001     2.36477   
   125. RY*(  14) F   8                  0.00000     8.81659   
   126. RY*(  15) F   8                  0.00000     2.36788   
   127. RY*(  16) F   8                  0.00000     9.06099   
   128. RY*(  17) F   8                  0.00000     5.23314   
   129. RY*(  18) F   8                  0.00000     8.57041   
   130. RY*(  19) F   8                  0.00000    66.30038   
   131. RY*(  20) F   8                  0.00000     8.29171   
   132. RY*(  21) F   8                  0.00000     2.50448   
   133. RY*(  22) F   8                  0.00000     8.96277   
   134. RY*(   1) F   9                  0.00073     0.67403   
   135. RY*(   2) F   9                  0.00033     0.67769   
   136. RY*(   3) F   9                  0.00033     1.50241   
   137. RY*(   4) F   9                  0.00006     1.67166   
   138. RY*(   5) F   9                  0.00006     1.71478   
   139. RY*(   6) F   9                  0.00003     2.15406   
   140. RY*(   7) F   9                  0.00003     2.26497   
   141. RY*(   8) F   9                  0.00002     2.83827   
   142. RY*(   9) F   9                  0.00003     2.91599   
   143. RY*(  10) F   9                  0.00000     2.07384   
   144. RY*(  11) F   9                  0.00000     2.26329   
   145. RY*(  12) F   9                  0.00000     5.69440   
   146. RY*(  13) F   9                  0.00000     5.81494   
   147. RY*(  14) F   9                  0.00000     8.38297   
   148. RY*(  15) F   9                  0.00001     2.05431   
   149. RY*(  16) F   9                  0.00000     8.89261   
   150. RY*(  17) F   9                  0.00000    66.54917   
   151. RY*(  18) F   9                  0.00000     8.99507   
   152. RY*(  19) F   9                  0.00000     2.25680   
   153. RY*(  20) F   9                  0.00000     9.00635   
   154. RY*(  21) F   9                  0.00000     5.60262   
   155. RY*(  22) F   9                  0.00000     8.28118   
   156. RY*(   1) F  10                  0.00073     0.67398   
   157. RY*(   2) F  10                  0.00033     0.67825   
   158. RY*(   3) F  10                  0.00033     1.50244   
   159. RY*(   4) F  10                  0.00006     1.66850   
   160. RY*(   5) F  10                  0.00006     1.71711   
   161. RY*(   6) F  10                  0.00003     2.15698   
   162. RY*(   7) F  10                  0.00003     2.26523   
   163. RY*(   8) F  10                  0.00002     2.82702   
   164. RY*(   9) F  10                  0.00003     2.92457   
   165. RY*(  10) F  10                  0.00000     2.07444   
   166. RY*(  11) F  10                  0.00000     2.26193   
   167. RY*(  12) F  10                  0.00000     5.69054   
   168. RY*(  13) F  10                  0.00000     5.81423   
   169. RY*(  14) F  10                  0.00000     8.38582   
   170. RY*(  15) F  10                  0.00001     2.05339   
   171. RY*(  16) F  10                  0.00000     8.88916   
   172. RY*(  17) F  10                  0.00000    66.54736   
   173. RY*(  18) F  10                  0.00000     9.00249   
   174. RY*(  19) F  10                  0.00000     2.25771   
   175. RY*(  20) F  10                  0.00000     9.00664   
   176. RY*(  21) F  10                  0.00000     5.60043   
   177. RY*(  22) F  10                  0.00000     8.28344   
   178. BD*(   1) C   1 - H   2          0.00287     0.41740   
   179. BD*(   1) C   1 - H   3          0.00287     0.41740   
   180. BD*(   1) C   1 - C   4          0.00255     0.40558   
   181. BD*(   1) C   4 - H   5          0.00534     0.36417   
   182. BD*(   1) C   4 - H   6          0.00534     0.36419   
   183. BD*(   1) C   4 - C   7          0.02224     0.31261   
   184. BD*(   1) C   7 - F   8          0.04629     0.20874   
   185. BD*(   1) C   7 - F   9          0.04761     0.20970   
   186. BD*(   1) C   7 - F  10          0.04761     0.20971   
       -------------------------------
              Total Lewis   23.74792  ( 98.9497%)
        Valence non-Lewis    0.21065  (  0.8777%)
        Rydberg non-Lewis    0.04143  (  0.1726%)
       -------------------------------
            Total unit  1   24.00000  (100.0000%)
           Charge unit  1    0.50000
 Leave Link  607 at Wed Sep  5 17:05:06 2018, MaxMem=   805306368 cpu:              10.4 elap:               1.7
 (Enter /home/g16/l9999.exe)
 1\1\GINC-PC13\Stability\UB3LYP\6-311+G(2d,p)\C3H4F3(2)\MASKER\05-Sep-2
 018\0\\#p b3lyp/6-311+g(2d,p) pop=(full,nboread) stable=opt g09def\\TF
 3-c1-1sp 1\\0,2\C,0,2.117678,-0.062481,0.000023\H,0,2.533607,-0.426603
 ,-0.928483\H,0,2.534933,-0.422373,0.929579\C,0,0.903161,0.796381,-0.00
 1109\H,0,0.866321,1.437535,-0.885581\H,0,0.866393,1.440011,0.881545\C,
 0,-0.401271,0.011084,-0.000002\F,0,-1.467586,0.841536,-0.001498\F,0,-0
 .517102,-0.783572,-1.084644\F,0,-0.517386,-0.780017,1.087193\\Version=
 ES64L-G16RevA.03\State=2-A\HF=-416.3465668\S2=0.75383\S2-1=0.\S2A=0.75
 0009\RMSD=7.248e-09\Dipole=0.7864072,0.4342753,-0.0005793\Quadrupole=-
 0.198462,-0.0574402,0.2559021,0.1180407,0.000803,0.0015378\PG=C01 [X(C
 3H4F3)]\\@


 ... THIS SEEMS PLAINLY ABSURD; BUT WHOEVER WISHES TO BECOME A 
 PHILOSOPHER MUST LEARN NOT TO BE FRIGHTENED BY ABSURDITIES.

                          -- BERTRAND RUSSELL
 Job cpu time:       0 days  0 hours  6 minutes 10.5 seconds.
 Elapsed time:       0 days  0 hours  0 minutes 49.4 seconds.
 File lengths (MBytes):  RWF=    186 Int=      0 D2E=      0 Chk=      6 Scr=      1
 Normal termination of Gaussian 16 at Wed Sep  5 17:05:07 2018.
